
                                 *****************
                                 * O   R   C   A *
                                 *****************

                                            #,                                       
                                            ###                                      
                                            ####                                     
                                            #####                                    
                                            ######                                   
                                           ########,                                 
                                     ,,################,,,,,                         
                               ,,#################################,,                 
                          ,,##########################################,,             
                       ,#########################################, ''#####,          
                    ,#############################################,,   '####,        
                  ,##################################################,,,,####,       
                ,###########''''           ''''###############################       
              ,#####''   ,,,,##########,,,,          '''####'''          '####       
            ,##' ,,,,###########################,,,                        '##       
           ' ,,###''''                  '''############,,,                           
         ,,##''                                '''############,,,,        ,,,,,,###''
      ,#''                                            '''#######################'''  
     '                                                          ''''####''''         
             ,#######,   #######,   ,#######,      ##                                
            ,#'     '#,  ##    ##  ,#'     '#,    #''#        ######   ,####,        
            ##       ##  ##   ,#'  ##            #'  '#       #        #'  '#        
            ##       ##  #######   ##           ,######,      #####,   #    #        
            '#,     ,#'  ##    ##  '#,     ,#' ,#      #,         ##   #,  ,#        
             '#######'   ##     ##  '#######'  #'      '#     #####' # '####'        



                  #######################################################
                  #                        -***-                        #
                  #          Department of theory and spectroscopy      #
                  #    Directorship and core code : Frank Neese         #
                  #        Max Planck Institute fuer Kohlenforschung    #
                  #                Kaiser Wilhelm Platz 1               #
                  #                 D-45470 Muelheim/Ruhr               #
                  #                      Germany                        #
                  #                                                     #
                  #                  All rights reserved                #
                  #                        -***-                        #
                  #######################################################


                         Program Version 5.0.4 -  RELEASE  -


 With contributions from (in alphabetic order):
   Daniel Aravena         : Magnetic Suceptibility
   Michael Atanasov       : Ab Initio Ligand Field Theory (pilot matlab implementation)
   Alexander A. Auer      : GIAO ZORA, VPT2 properties, NMR spectrum
   Ute Becker             : Parallelization
   Giovanni Bistoni       : ED, misc. LED, open-shell LED, HFLD
   Martin Brehm           : Molecular dynamics
   Dmytro Bykov           : SCF Hessian
   Vijay G. Chilkuri      : MRCI spin determinant printing, contributions to CSF-ICE
   Dipayan Datta          : RHF DLPNO-CCSD density
   Achintya Kumar Dutta   : EOM-CC, STEOM-CC
   Dmitry Ganyushin       : Spin-Orbit,Spin-Spin,Magnetic field MRCI
   Miquel Garcia          : C-PCM and meta-GGA Hessian, CC/C-PCM, Gaussian charge scheme
   Yang Guo               : DLPNO-NEVPT2, F12-NEVPT2, CIM, IAO-localization
   Andreas Hansen         : Spin unrestricted coupled pair/coupled cluster methods
   Benjamin Helmich-Paris : MC-RPA, TRAH-SCF, COSX integrals
   Lee Huntington         : MR-EOM, pCC
   Robert Izsak           : Overlap fitted RIJCOSX, COSX-SCS-MP3, EOM
   Marcus Kettner         : VPT2
   Christian Kollmar      : KDIIS, OOCD, Brueckner-CCSD(T), CCSD density, CASPT2, CASPT2-K
   Simone Kossmann        : Meta GGA functionals, TD-DFT gradient, OOMP2, MP2 Hessian
   Martin Krupicka        : Initial AUTO-CI
   Lucas Lang             : DCDCAS
   Marvin Lechner         : AUTO-CI (C++ implementation), FIC-MRCC
   Dagmar Lenk            : GEPOL surface, SMD
   Dimitrios Liakos       : Extrapolation schemes; Compound Job, initial MDCI parallelization
   Dimitrios Manganas     : Further ROCIS development; embedding schemes
   Dimitrios Pantazis     : SARC Basis sets
   Anastasios Papadopoulos: AUTO-CI, single reference methods and gradients
   Taras Petrenko         : DFT Hessian,TD-DFT gradient, ASA, ECA, R-Raman, ABS, FL, XAS/XES, NRVS
   Peter Pinski           : DLPNO-MP2, DLPNO-MP2 Gradient
   Christoph Reimann      : Effective Core Potentials
   Marius Retegan         : Local ZFS, SOC
   Christoph Riplinger    : Optimizer, TS searches, QM/MM, DLPNO-CCSD(T), (RO)-DLPNO pert. Triples
   Tobias Risthaus        : Range-separated hybrids, TD-DFT gradient, RPA, STAB
   Michael Roemelt        : Original ROCIS implementation
   Masaaki Saitow         : Open-shell DLPNO-CCSD energy and density
   Barbara Sandhoefer     : DKH picture change effects
   Avijit Sen             : IP-ROCIS
   Kantharuban Sivalingam : CASSCF convergence, NEVPT2, FIC-MRCI
   Bernardo de Souza      : ESD, SOC TD-DFT
   Georgi Stoychev        : AutoAux, RI-MP2 NMR, DLPNO-MP2 response
   Willem Van den Heuvel  : Paramagnetic NMR
   Boris Wezisla          : Elementary symmetry handling
   Frank Wennmohs         : Technical directorship


 We gratefully acknowledge several colleagues who have allowed us to
 interface, adapt or use parts of their codes:
   Stefan Grimme, W. Hujo, H. Kruse, P. Pracht,  : VdW corrections, initial TS optimization,
                  C. Bannwarth, S. Ehlert          DFT functionals, gCP, sTDA/sTD-DF
   Ed Valeev, F. Pavosevic, A. Kumar             : LibInt (2-el integral package), F12 methods
   Garnet Chan, S. Sharma, J. Yang, R. Olivares  : DMRG
   Ulf Ekstrom                                   : XCFun DFT Library
   Mihaly Kallay                                 : mrcc  (arbitrary order and MRCC methods)
   Jiri Pittner, Ondrej Demel                    : Mk-CCSD
   Frank Weinhold                                : gennbo (NPA and NBO analysis)
   Christopher J. Cramer and Donald G. Truhlar   : smd solvation model
   Lars Goerigk                                  : TD-DFT with DH, B97 family of functionals
   V. Asgeirsson, H. Jonsson                     : NEB implementation
   FAccTs GmbH                                   : IRC, NEB, NEB-TS, DLPNO-Multilevel, CI-OPT
                                                   MM, QMMM, 2- and 3-layer-ONIOM, Crystal-QMMM,
                                                   LR-CPCM, SF, NACMEs, symmetry and pop. for TD-DFT,
                                                   nearIR, NL-DFT gradient (VV10), updates on ESD,
                                                   ML-optimized integration grids
   S Lehtola, MJT Oliveira, MAL Marques          : LibXC Library
   Liviu Ungur et al                             : ANISO software


 Your calculation uses the libint2 library for the computation of 2-el integrals
 For citations please refer to: http://libint.valeyev.net

 Your ORCA version has been built with support for libXC version: 5.1.0
 For citations please refer to: https://tddft.org/programs/libxc/

 This ORCA versions uses:
   CBLAS   interface :  Fast vector & matrix operations
   LAPACKE interface :  Fast linear algebra routines
   SCALAPACK package :  Parallel linear algebra routines
   Shared memory     :  Shared parallel matrices
   BLAS/LAPACK       :  OpenBLAS 0.3.15  USE64BITINT DYNAMIC_ARCH NO_AFFINITY Haswell SINGLE_THREADED
        Core in use  :  Haswell
   Copyright (c) 2011-2014, The OpenBLAS Project


================================================================================

cite the ECPs for Ho [Def2-ECP] as follows:
Ce-Yb(ecp-28): M. Dolg, H. Stoll, H.Preuss, J. Chem. Phys., 1989, 90, 1730-1734.
Y-Cd(ecp-28), Hf-Hg(ecp-46): D. Andrae,U. Haeussermann, M. Dolg, H. Stoll, H. Preuss, Theor. Chim. Acta, 1990, 77, 123-141.
In-Sb(ecp-28), Tl-Bi(ecp-46): B. Metz, H. Stoll, M. Dolg, J. Chem. Phys., 2000, 113, 2563-2569.
Te-Xe(ecp-28), Po-Rn(ecp-46): K. A. Peterson, D. Figgen, E. Goll, H. Stoll, M. Dolg, J. Chem. Phys., 2003, 119, 11113-11123.
Rb(ecp-28), Cs(ecp-46): T. Leininger, A. Nicklass, W. Kuechle, H. Stoll, M. Dolg, A. Bergner, Chem. Phys. Lett., 1996, 255, 274-280.
Sr(ecp-28), Ba(ecp-46): M. Kaupp, P. V. Schleyer, H. Stoll and H. Preuss, J. Chem. Phys., 1991, 94, 1360-1366.
La(ecp-46): M. Dolg, H. Stoll, A. Savin, H. Preuss, Theor. Chim. Acta, 1989, 75, 173-194.
Lu(ecp-28): X. Cao, M. Dolg, J. Chem. Phys., 2001, 115, 7348-7355.

ECP parameters for Ho [Def2-ECP] have been obtained from:
TURBOMOLE (7.0.2)

----- Orbital basis set information -----
Your calculation utilizes the basis: def2-TZVP
   F. Weigend and R. Ahlrichs, Phys. Chem. Chem. Phys. 7, 3297 (2005).

================================================================================
                                        WARNINGS
                       Please study these warnings very carefully!
================================================================================


WARNING: your system is open-shell and RHF/RKS was chosen
  ===> : WILL SWITCH to UHF/UKS


INFO   : the flag for use of the SHARK integral package has been found!

================================================================================
                                       INPUT FILE
================================================================================
NAME = 12.inp
|  1> ! DEF2-TZVP
|  2> %output Print [ P_Overlap ] 1 end
|  3> * xyz 2 5
|  4> 67      -0.481889388     -1.733341381     -3.682293394
|  5> 17       1.462607525     -1.387897367     -1.824387550
|  6> *
|  7> 
|  8>                          ****END OF INPUT****
================================================================================

                       ****************************
                       * Single Point Calculation *
                       ****************************

---------------------------------
CARTESIAN COORDINATES (ANGSTROEM)
---------------------------------
  Ho    -0.481889   -1.733341   -3.682293
  Cl     1.462608   -1.387897   -1.824388

----------------------------
CARTESIAN COORDINATES (A.U.)
----------------------------
  NO LB      ZA    FRAG     MASS         X           Y           Z
   0 Ho   39.0000*   0   164.930   -0.910639   -3.275541   -6.958526
   1 Cl   17.0000    0    35.453    2.763928   -2.622746   -3.447593
* core charge reduced due to ECP

--------------------------------
INTERNAL COORDINATES (ANGSTROEM)
--------------------------------
 Ho     0   0   0     0.000000000000     0.00000000     0.00000000
 Cl     1   0   0     2.711496623019     0.00000000     0.00000000

---------------------------
INTERNAL COORDINATES (A.U.)
---------------------------
 Ho     0   0   0     0.000000000000     0.00000000     0.00000000
 Cl     1   0   0     5.123986030559     0.00000000     0.00000000

---------------------
BASIS SET INFORMATION
---------------------
There are 2 groups of distinct atoms

 Group   1 Type Ho  : 14s14p10d8f1g contracted to 10s7p5d4f1g pattern {5111111111/6311111/61111/5111/1}
 Group   2 Type Cl  : 14s9p3d1f contracted to 5s5p2d1f pattern {73211/51111/21/1}

Atom   0Ho   basis set group =>   1
Atom   1Cl   basis set group =>   2
-------------------------
ECP PARAMETER INFORMATION
-------------------------

 Group 1, Type Ho ECP Def2-ECP (replacing 28 core electrons, lmax=5)

Atom   0Ho   ECP group =>   1

------------------------------------------------------------------------------
                           ORCA GTO INTEGRAL CALCULATION
------------------------------------------------------------------------------
------------------------------------------------------------------------------
                   ___                                                        
                  /   \      - P O W E R E D   B Y -                         
                 /     \                                                     
                 |  |  |   _    _      __       _____    __    __             
                 |  |  |  | |  | |    /  \     |  _  \  |  |  /  |          
                  \  \/   | |  | |   /    \    | | | |  |  | /  /          
                 / \  \   | |__| |  /  /\  \   | |_| |  |  |/  /          
                |  |  |   |  __  | /  /__\  \  |    /   |      \           
                |  |  |   | |  | | |   __   |  |    \   |  |\   \          
                \     /   | |  | | |  |  |  |  | |\  \  |  | \   \       
                 \___/    |_|  |_| |__|  |__|  |_| \__\ |__|  \__/        
                                                                              
                      - O R C A' S   B I G   F R I E N D -                    
                                      &                                       
                       - I N T E G R A L  F E E D E R -                       
                                                                              
 v1 FN, 2020, v2 2021                                                         
------------------------------------------------------------------------------


Reading SHARK input file 12.SHARKINP.tmp ... ok
----------------------
SHARK INTEGRAL PACKAGE
----------------------

Number of atoms                             ...      2
Number of basis functions                   ...    130
Number of shells                            ...     40
Maximum angular momentum                    ...      4
Integral batch strategy                     ... SHARK/LIBINT Hybrid
RI-J (if used) integral strategy            ... SPLIT-RIJ (Revised 2003 algorithm where possible)
Printlevel                                  ...      1
Contraction scheme used                     ... SEGMENTED contraction
Coulomb Range Separation                    ... NOT USED
Exchange Range Separation                   ... NOT USED
Finite Nucleus Model                        ... NOT USED
Auxiliary Coulomb fitting basis             ... NOT available
Auxiliary J/K fitting basis                 ... NOT available
Auxiliary Correlation fitting basis         ... NOT available
Auxiliary 'external' fitting basis          ... NOT available
Integral threshold                          ...     1.000000e-10
Primitive cut-off                           ...     1.000000e-11
Primitive pair pre-selection threshold      ...     1.000000e-11

Calculating pre-screening integrals         ... done (  0.1 sec) Dimension = 40
Organizing shell pair data                  ... done (  0.0 sec)
Shell pair information
Total number of shell pairs                 ...       820
Shell pairs after pre-screening             ...       756
Total number of primitive shell pairs       ...      2864
Primitive shell pairs kept                  ...      2234
          la=0 lb=0:    102 shell pairs
          la=1 lb=0:    157 shell pairs
          la=1 lb=1:     72 shell pairs
          la=2 lb=0:    100 shell pairs
          la=2 lb=1:     80 shell pairs
          la=2 lb=2:     28 shell pairs
          la=3 lb=0:     70 shell pairs
          la=3 lb=1:     57 shell pairs
          la=3 lb=2:     35 shell pairs
          la=3 lb=3:     15 shell pairs
          la=4 lb=0:     15 shell pairs
          la=4 lb=1:     12 shell pairs
          la=4 lb=2:      7 shell pairs
          la=4 lb=3:      5 shell pairs
          la=4 lb=4:      1 shell pairs

Calculating one electron integrals          ... done (  0.0 sec)
Calculating ECP integrals                   ... done (  0.1 sec)
Calculating Nuclear repulsion               ... done (  0.0 sec) ENN=    129.391453459472 Eh

SHARK setup successfully completed in   0.4 seconds

Maximum memory used throughout the entire GTOINT-calculation: 63.7 MB
-------------------------------------------------------------------------------
                                 ORCA SCF
-------------------------------------------------------------------------------

------------
SCF SETTINGS
------------
Hamiltonian:
 Ab initio Hamiltonian  Method          .... Hartree-Fock(GTOs)


General Settings:
 Integral files         IntName         .... 12
 Hartree-Fock type      HFTyp           .... UHF
 Total Charge           Charge          ....    2
 Multiplicity           Mult            ....    5
 Number of Electrons    NEL             ....   54
 Basis Dimension        Dim             ....  130
 Nuclear Repulsion      ENuc            ....    129.3914534595 Eh

Convergence Acceleration:
 DIIS                   CNVDIIS         .... on
   Start iteration      DIISMaxIt       ....    12
   Startup error        DIISStart       ....  0.200000
   # of expansion vecs  DIISMaxEq       ....     5
   Bias factor          DIISBfac        ....   1.050
   Max. coefficient     DIISMaxC        ....  10.000
 Trust-Rad. Augm. Hess. CNVTRAH         .... auto
   Auto Start mean grad. ratio tolernc. ....  1.125000
   Auto Start start iteration           ....    20
   Auto Start num. interpolation iter.  ....    10
   Max. Number of Micro iterations      ....    16
   Max. Number of Macro iterations      .... Maxiter - #DIIS iter
   Number of Davidson start vectors     ....     2
   Converg. threshold I  (grad. norm)   ....   5.000e-05
   Converg. threshold II (energy diff.) ....   1.000e-06
   Grad. Scal. Fac. for Micro threshold ....   0.100
   Minimum threshold for Micro iter.    ....   0.010
   NR start threshold (gradient norm)   ....   0.001
   Initial trust radius                 ....   0.400
   Minimum AH scaling param. (alpha)    ....   1.000
   Maximum AH scaling param. (alpha)    .... 1000.000
   Orbital update algorithm             .... Taylor
   White noise on init. David. guess    .... on
   Maximum white noise                  ....   0.010
   Quad. conv. algorithm                .... NR
 SOSCF                  CNVSOSCF        .... off
 Level Shifting         CNVShift        .... on
   Level shift para.    LevelShift      ....    0.2500
   Turn off err/grad.   ShiftErr        ....    0.0010
 Zerner damping         CNVZerner       .... off
 Static damping         CNVDamp         .... on
   Fraction old density DampFac         ....    0.7000
   Max. Damping (<1)    DampMax         ....    0.9800
   Min. Damping (>=0)   DampMin         ....    0.0000
   Turn off err/grad.   DampErr         ....    0.1000
 Fernandez-Rico         CNVRico         .... off

SCF Procedure:
 Maximum # iterations   MaxIter         ....   125
 SCF integral mode      SCFMode         .... Direct
   Integral package                     .... SHARK and LIBINT hybrid scheme
 Reset frequency        DirectResetFreq ....    20
 Integral Threshold     Thresh          ....  1.000e-10 Eh
 Primitive CutOff       TCut            ....  1.000e-11 Eh

Convergence Tolerance:
 Convergence Check Mode ConvCheckMode   .... Total+1el-Energy
 Convergence forced     ConvForced      .... 0
 Energy Change          TolE            ....  1.000e-06 Eh
 1-El. energy change                    ....  1.000e-03 Eh
 DIIS Error             TolErr          ....  1.000e-06


Diagonalization of the overlap matrix:
Smallest eigenvalue                        ... 1.197e-03
Time for diagonalization                   ...    0.001 sec
Threshold for overlap eigenvalues          ... 1.000e-08
Number of eigenvalues below threshold      ... 0
Time for construction of square roots      ...    0.000 sec
Total time needed                          ...    0.002 sec

--------------
OVERLAP MATRIX
--------------
                  0          1          2          3          4          5    
      0       1.000000   0.509276   0.419477   0.273126   0.101413   0.060829
      1       0.509276   1.000000   0.979094   0.832285   0.406500   0.256912
      2       0.419477   0.979094   1.000000   0.919940   0.498460   0.322374
      3       0.273126   0.832285   0.919940   1.000000   0.709321   0.491961
      4       0.101413   0.406500   0.498460   0.709321   1.000000   0.914853
      5       0.060829   0.256912   0.322374   0.491961   0.914853   1.000000
      6       0.029386   0.128376   0.163608   0.262390   0.622546   0.841173
      7       0.015517   0.068604   0.087924   0.143639   0.378226   0.572447
      8       0.004086   0.018199   0.023407   0.038690   0.109367   0.180672
      9       0.002089   0.009313   0.011982   0.019835   0.056568   0.094544
     10       0.000000  -0.000000   0.000000  -0.000000  -0.000000  -0.000000
     11       0.000000  -0.000000   0.000000  -0.000000  -0.000000  -0.000000
     12       0.000000  -0.000000  -0.000000  -0.000000  -0.000000  -0.000000
     13      -0.000000  -0.000000  -0.000000  -0.000000   0.000000  -0.000000
     14      -0.000000   0.000000   0.000000  -0.000000   0.000000   0.000000
     15      -0.000000   0.000000  -0.000000  -0.000000   0.000000   0.000000
     16       0.000000  -0.000000   0.000000   0.000000  -0.000000   0.000000
     17       0.000000  -0.000000  -0.000000   0.000000  -0.000000  -0.000000
     18      -0.000000  -0.000000   0.000000   0.000000   0.000000  -0.000000
     19       0.000000   0.000000   0.000000   0.000000   0.000000  -0.000000
     20      -0.000000  -0.000000  -0.000000  -0.000000  -0.000000   0.000000
     21       0.000000   0.000000  -0.000000   0.000000   0.000000  -0.000000
     22       0.000000   0.000000   0.000000   0.000000  -0.000000   0.000000
     23      -0.000000   0.000000  -0.000000  -0.000000  -0.000000   0.000000
     24       0.000000   0.000000   0.000000   0.000000  -0.000000   0.000000
     25       0.000000   0.000000   0.000000   0.000000   0.000000  -0.000000
     26       0.000000   0.000000   0.000000   0.000000   0.000000   0.000000
     27       0.000000   0.000000   0.000000   0.000000  -0.000000   0.000000
     28       0.000000  -0.000000   0.000000   0.000000   0.000000   0.000000
     29      -0.000000  -0.000000   0.000000   0.000000   0.000000   0.000000
     30       0.000000  -0.000000   0.000000   0.000000   0.000000   0.000000
     31       0.000000  -0.000000  -0.000000   0.000000   0.000000   0.000000
     32       0.000000   0.000000   0.000000   0.000000   0.000000   0.000000
     33       0.000000   0.000000   0.000000   0.000000   0.000000   0.000000
     34      -0.000000  -0.000000  -0.000000  -0.000000  -0.000000  -0.000000
     35       0.000000   0.000000  -0.000000   0.000000   0.000000   0.000000
     36       0.000000   0.000000   0.000000   0.000000  -0.000000   0.000000
     37       0.000000   0.000000   0.000000   0.000000   0.000000   0.000000
     38       0.000000   0.000000   0.000000   0.000000   0.000000   0.000000
     39      -0.000000  -0.000000  -0.000000  -0.000000  -0.000000  -0.000000
     40       0.000000   0.000000   0.000000   0.000000   0.000000   0.000000
     41      -0.000000  -0.000000   0.000000  -0.000000   0.000000   0.000000
     42       0.000000   0.000000  -0.000000   0.000000   0.000000   0.000000
     43       0.000000   0.000000   0.000000   0.000000   0.000000   0.000000
     44      -0.000000  -0.000000  -0.000000  -0.000000  -0.000000  -0.000000
     45       0.000000   0.000000  -0.000000   0.000000   0.000000   0.000000
     46      -0.000000   0.000000   0.000000  -0.000000  -0.000000   0.000000
     47       0.000000   0.000000   0.000000   0.000000   0.000000   0.000000
     48       0.000000   0.000000   0.000000   0.000000   0.000000   0.000000
     49      -0.000000  -0.000000  -0.000000  -0.000000  -0.000000  -0.000000
     50       0.000000   0.000000   0.000000   0.000000   0.000000   0.000000
     51      -0.000000  -0.000000   0.000000   0.000000  -0.000000   0.000000
     52       0.000000   0.000000   0.000000   0.000000   0.000000   0.000000
     53       0.000000   0.000000   0.000000   0.000000   0.000000   0.000000
     54      -0.000000  -0.000000  -0.000000  -0.000000  -0.000000  -0.000000
     55       0.000000   0.000000   0.000000   0.000000   0.000000   0.000000
     56      -0.000000   0.000000   0.000000  -0.000000   0.000000   0.000000
     57       0.000000  -0.000000  -0.000000   0.000000  -0.000000   0.000000
     58       0.000000   0.000000  -0.000000   0.000000  -0.000000   0.000000
     59       0.000000   0.000000  -0.000000   0.000000   0.000000   0.000000
     60       0.000000   0.000000  -0.000000  -0.000000  -0.000000   0.000000
     61       0.000000  -0.000000   0.000000   0.000000  -0.000000   0.000000
     62      -0.000000   0.000000   0.000000  -0.000000  -0.000000  -0.000000
     63      -0.000000   0.000000  -0.000000  -0.000000  -0.000000   0.000000
     64      -0.000000   0.000000   0.000000   0.000000   0.000000  -0.000000
     65       0.000000  -0.000000  -0.000000   0.000000   0.000000   0.000000
     66      -0.000000   0.000000  -0.000000  -0.000000  -0.000000   0.000000
     67       0.000000  -0.000000   0.000000   0.000000   0.000000   0.000000
     68      -0.000000   0.000000   0.000000   0.000000   0.000000  -0.000000
     69       0.000000   0.000000   0.000000   0.000000   0.000000   0.000000
     70      -0.000000   0.000000   0.000000   0.000000  -0.000000   0.000000
     71      -0.000000   0.000000  -0.000000   0.000000   0.000000  -0.000000
     72       0.000000   0.000000   0.000000   0.000000   0.000000  -0.000000
     73       0.000000   0.000000   0.000000   0.000000   0.000000  -0.000000
     74      -0.000000   0.000000   0.000000   0.000000  -0.000000   0.000000
     75       0.000000   0.000000   0.000000   0.000000   0.000000  -0.000000
     76      -0.000000   0.000000   0.000000   0.000000  -0.000000   0.000000
     77      -0.000000   0.000000   0.000000  -0.000000  -0.000000  -0.000000
     78      -0.000000   0.000000  -0.000000   0.000000   0.000000   0.000000
     79      -0.000000  -0.000000   0.000000   0.000000   0.000000   0.000000
     80      -0.000000   0.000000   0.000000   0.000000  -0.000000   0.000000
     81       0.000000   0.000000   0.000000  -0.000000   0.000000  -0.000000
     82      -0.000000   0.000000  -0.000000   0.000000   0.000000   0.000000
     83      -0.000000  -0.000000   0.000000  -0.000000   0.000000  -0.000000
     84      -0.000000  -0.000000   0.000000  -0.000000  -0.000000  -0.000000
     85      -0.000000   0.000000   0.000000  -0.000000   0.000000  -0.000000
     86       0.000000  -0.000000   0.000000   0.000000   0.000000  -0.000000
     87      -0.000000  -0.000000   0.000000   0.000000  -0.000000  -0.000000
     88       0.000000   0.000000   0.000000   0.000000   0.000000   0.000000
     89      -0.000000   0.000000   0.000000   0.000000  -0.000000   0.000000
     90       0.000000   0.000000   0.000000   0.000000   0.000000  -0.000000
     91       0.000000   0.000000  -0.000000  -0.000000   0.000000   0.000000
     92       0.000000   0.000000   0.000000   0.000000   0.000000  -0.000000
     93       0.000000   0.000000   0.000000   0.000000   0.000000   0.000000
     94       0.000000   0.000000   0.000000   0.000000   0.000000   0.000000
     95       0.000000   0.000000   0.000000   0.000000   0.000000   0.000000
     96       0.000000   0.000000   0.000000   0.000000   0.000003   0.000015
     97       0.000084   0.000377   0.000488   0.000820   0.002582   0.004870
     98       0.000000   0.000000   0.000000   0.000000   0.000000   0.000000
     99       0.000000   0.000000   0.000000   0.000000   0.000000   0.000000
    100       0.000000   0.000000   0.000000   0.000000   0.000000   0.000000
    101       0.000000   0.000000   0.000000   0.000000   0.000000   0.000000
    102       0.000000   0.000000   0.000000   0.000000   0.000000   0.000000
    103       0.000000   0.000000   0.000000   0.000000   0.000000   0.000000
    104       0.000000   0.000000   0.000000  -0.000000  -0.000000  -0.000000
    105       0.000000   0.000000   0.000000  -0.000000  -0.000000  -0.000000
    106       0.000000   0.000000   0.000000  -0.000000  -0.000000  -0.000000
    107      -0.000003  -0.000014  -0.000018  -0.000033  -0.000147  -0.000407
    108      -0.000003  -0.000015  -0.000019  -0.000035  -0.000154  -0.000426
    109      -0.000001  -0.000003  -0.000003  -0.000006  -0.000027  -0.000076
    110      -0.000604  -0.002700  -0.003479  -0.005783  -0.016913  -0.029141
    111      -0.000632  -0.002826  -0.003641  -0.006052  -0.017701  -0.030500
    112      -0.000112  -0.000502  -0.000647  -0.001075  -0.003145  -0.005418
    113       0.000000   0.000000   0.000000   0.000000   0.000000   0.000000
    114       0.000000   0.000000   0.000000   0.000000   0.000000   0.000000
    115       0.000000   0.000000   0.000000   0.000000   0.000000   0.000000
    116       0.000000   0.000000   0.000000   0.000000   0.000000   0.000000
    117       0.000000   0.000000   0.000000   0.000000   0.000000   0.000000
    118       0.000009   0.000040   0.000052   0.000090   0.000341   0.000783
    119       0.000036   0.000166   0.000217   0.000376   0.001422   0.003264
    120       0.000006   0.000029   0.000038   0.000067   0.000253   0.000580
    121       0.000018   0.000084   0.000110   0.000191   0.000721   0.001654
    122       0.000007   0.000031   0.000040   0.000070   0.000264   0.000607
    123       0.000000   0.000000   0.000000   0.000000   0.000002   0.000010
    124      -0.000000  -0.000000  -0.000000  -0.000000  -0.000004  -0.000026
    125      -0.000000  -0.000000  -0.000000  -0.000000  -0.000001  -0.000005
    126      -0.000000  -0.000000  -0.000000  -0.000000  -0.000005  -0.000030
    127      -0.000000  -0.000000  -0.000000  -0.000000  -0.000002  -0.000011
    128       0.000000   0.000000   0.000000   0.000000   0.000002   0.000012
    129       0.000000   0.000000   0.000000   0.000000   0.000001   0.000007
                  6          7          8          9         10         11    
      0       0.029386   0.015517   0.004086   0.002089   0.000000   0.000000
      1       0.128376   0.068604   0.018199   0.009313  -0.000000  -0.000000
      2       0.163608   0.087924   0.023407   0.011982   0.000000   0.000000
      3       0.262390   0.143639   0.038690   0.019835  -0.000000  -0.000000
      4       0.622546   0.378226   0.109367   0.056568  -0.000000  -0.000000
      5       0.841173   0.572447   0.180672   0.094544  -0.000000  -0.000000
      6       1.000000   0.875526   0.353171   0.191793  -0.000000  -0.000000
      7       0.875526   1.000000   0.588828   0.344027  -0.000000  -0.000000
      8       0.353171   0.588828   1.000000   0.864717   0.000000   0.000000
      9       0.191793   0.344027   0.864717   1.000000  -0.000000  -0.000000
     10      -0.000000  -0.000000   0.000000  -0.000000   1.000000   0.000000
     11      -0.000000  -0.000000   0.000000  -0.000000   0.000000   1.000000
     12       0.000000  -0.000000   0.000000  -0.000000  -0.000000  -0.000000
     13       0.000000  -0.000000  -0.000000   0.000000   0.630067   0.000000
     14       0.000000   0.000000  -0.000000   0.000000   0.000000   0.630067
     15       0.000000  -0.000000  -0.000000   0.000000   0.000000  -0.000000
     16       0.000000  -0.000000   0.000000   0.000000  -0.828563   0.000000
     17       0.000000   0.000000   0.000000   0.000000   0.000000  -0.828563
     18       0.000000   0.000000   0.000000   0.000000  -0.000000   0.000000
     19       0.000000   0.000000   0.000000   0.000000  -0.534135  -0.000000
     20      -0.000000  -0.000000   0.000000  -0.000000  -0.000000  -0.534135
     21       0.000000  -0.000000   0.000000   0.000000   0.000000  -0.000000
     22       0.000000   0.000000   0.000000   0.000000  -0.247809  -0.000000
     23      -0.000000   0.000000   0.000000   0.000000  -0.000000  -0.247809
     24       0.000000   0.000000   0.000000   0.000000  -0.000000  -0.000000
     25       0.000000   0.000000   0.000000   0.000000  -0.079466  -0.000000
     26      -0.000000   0.000000   0.000000  -0.000000  -0.000000  -0.079466
     27       0.000000   0.000000   0.000000   0.000000  -0.000000   0.000000
     28       0.000000   0.000000   0.000000   0.000000  -0.018931   0.000000
     29      -0.000000   0.000000   0.000000   0.000000   0.000000  -0.018931
     30       0.000000   0.000000   0.000000   0.000000   0.000000   0.000000
     31       0.000000  -0.000000   0.000000   0.000000  -0.000000   0.000000
     32       0.000000   0.000000   0.000000   0.000000  -0.000000  -0.000000
     33       0.000000   0.000000   0.000000   0.000000   0.000000   0.000000
     34      -0.000000  -0.000000  -0.000000  -0.000000   0.000000  -0.000000
     35       0.000000   0.000000   0.000000  -0.000000   0.000000   0.000000
     36      -0.000000  -0.000000  -0.000000   0.000000  -0.000000  -0.000000
     37       0.000000   0.000000   0.000000   0.000000   0.000000  -0.000000
     38       0.000000   0.000000   0.000000   0.000000  -0.000000   0.000000
     39      -0.000000  -0.000000  -0.000000  -0.000000   0.000000   0.000000
     40       0.000000   0.000000   0.000000   0.000000   0.000000  -0.000000
     41      -0.000000  -0.000000  -0.000000  -0.000000  -0.000000   0.000000
     42       0.000000   0.000000   0.000000   0.000000  -0.000000  -0.000000
     43       0.000000   0.000000   0.000000   0.000000  -0.000000  -0.000000
     44      -0.000000  -0.000000  -0.000000  -0.000000   0.000000  -0.000000
     45       0.000000   0.000000   0.000000   0.000000  -0.000000  -0.000000
     46      -0.000000  -0.000000   0.000000  -0.000000  -0.000000   0.000000
     47       0.000000   0.000000   0.000000   0.000000  -0.000000  -0.000000
     48       0.000000   0.000000   0.000000   0.000000   0.000000   0.000000
     49      -0.000000  -0.000000  -0.000000  -0.000000   0.000000  -0.000000
     50       0.000000   0.000000   0.000000   0.000000   0.000000   0.000000
     51       0.000000  -0.000000  -0.000000   0.000000  -0.000000   0.000000
     52       0.000000   0.000000   0.000000   0.000000  -0.000000  -0.000000
     53       0.000000   0.000000   0.000000   0.000000  -0.000000  -0.000000
     54      -0.000000  -0.000000  -0.000000  -0.000000   0.000000  -0.000000
     55       0.000000   0.000000   0.000000   0.000000  -0.000000  -0.000000
     56      -0.000000  -0.000000  -0.000000   0.000000   0.000000  -0.000000
     57       0.000000   0.000000   0.000000  -0.000000   0.000000  -0.000000
     58      -0.000000   0.000000   0.000000  -0.000000   0.000000  -0.000000
     59       0.000000   0.000000  -0.000000   0.000000   0.000000   0.000000
     60       0.000000   0.000000   0.000000   0.000000   0.000000   0.000000
     61       0.000000   0.000000  -0.000000  -0.000000  -0.000000  -0.000000
     62       0.000000  -0.000000  -0.000000  -0.000000   0.000000  -0.000000
     63      -0.000000   0.000000   0.000000   0.000000  -0.000000   0.000000
     64      -0.000000   0.000000   0.000000   0.000000  -0.000000   0.000000
     65       0.000000   0.000000   0.000000   0.000000  -0.000000   0.000000
     66      -0.000000   0.000000   0.000000   0.000000   0.000000  -0.000000
     67       0.000000   0.000000   0.000000   0.000000  -0.000000  -0.000000
     68      -0.000000   0.000000   0.000000  -0.000000   0.000000   0.000000
     69      -0.000000   0.000000   0.000000   0.000000  -0.000000   0.000000
     70      -0.000000   0.000000   0.000000   0.000000  -0.000000   0.000000
     71       0.000000   0.000000   0.000000   0.000000  -0.000000   0.000000
     72       0.000000  -0.000000  -0.000000   0.000000   0.000000  -0.000000
     73      -0.000000  -0.000000   0.000000   0.000000   0.000000  -0.000000
     74       0.000000   0.000000   0.000000   0.000000   0.000000   0.000000
     75       0.000000   0.000000   0.000000   0.000000  -0.000000   0.000000
     76      -0.000000   0.000000  -0.000000  -0.000000   0.000000  -0.000000
     77      -0.000000   0.000000   0.000000   0.000000   0.000000  -0.000000
     78      -0.000000   0.000000  -0.000000   0.000000   0.000000  -0.000000
     79       0.000000   0.000000  -0.000000   0.000000   0.000000  -0.000000
     80      -0.000000   0.000000  -0.000000   0.000000   0.000000   0.000000
     81       0.000000   0.000000   0.000000   0.000000   0.000000   0.000000
     82      -0.000000   0.000000  -0.000000  -0.000000  -0.000000  -0.000000
     83      -0.000000   0.000000   0.000000   0.000000   0.000000  -0.000000
     84      -0.000000   0.000000   0.000000  -0.000000  -0.000000  -0.000000
     85       0.000000   0.000000   0.000000   0.000000   0.000000  -0.000000
     86       0.000000   0.000000   0.000000   0.000000   0.000000   0.000000
     87      -0.000000  -0.000000  -0.000000  -0.000000  -0.000000   0.000000
     88       0.000000   0.000000   0.000000   0.000000   0.000000  -0.000000
     89       0.000000   0.000000   0.000000   0.000000  -0.000000   0.000000
     90       0.000000   0.000000   0.000000   0.000000   0.000000   0.000000
     91       0.000000  -0.000000  -0.000000   0.000000  -0.000000   0.000000
     92       0.000000   0.000000   0.000000   0.000000   0.000000   0.000000
     93       0.000000   0.000006   0.003585   0.004626   0.000000   0.000000
     94      -0.000000  -0.000040  -0.016598  -0.021358   0.000000   0.000000
     95       0.000000   0.000145   0.033174   0.042443   0.000000   0.000000
     96       0.000255   0.004177   0.119188   0.147958  -0.000008  -0.000008
     97       0.013798   0.040164   0.248253   0.297431  -0.001961  -0.002052
     98      -0.000000  -0.000024  -0.001832  -0.000968   0.000000   0.000000
     99      -0.000000  -0.000025  -0.001917  -0.001013   0.000000   0.000000
    100      -0.000000  -0.000004  -0.000341  -0.000180   0.000000   0.000000
    101      -0.000000  -0.000156  -0.007602  -0.004027   0.000000   0.000000
    102      -0.000000  -0.000163  -0.007956  -0.004215   0.000000   0.000000
    103      -0.000000  -0.000029  -0.001413  -0.000749   0.000000   0.000000
    104      -0.000017  -0.001430  -0.026918  -0.014367   0.000000   0.000000
    105      -0.000018  -0.001497  -0.028172  -0.015037   0.000000   0.000000
    106      -0.000003  -0.000266  -0.005005  -0.002671   0.000000   0.000000
    107      -0.002671  -0.016454  -0.084880  -0.046377   0.000220   0.000261
    108      -0.002796  -0.017221  -0.088836  -0.048539   0.000261   0.000244
    109      -0.000497  -0.003059  -0.015782  -0.008623   0.000046   0.000048
    110      -0.064046  -0.126362  -0.242579  -0.144645   0.006280   0.009690
    111      -0.067031  -0.132252  -0.253885  -0.151387   0.009690   0.007163
    112      -0.011908  -0.023495  -0.045103  -0.026894   0.001721   0.001802
    113       0.000014   0.000647   0.002554   0.000576  -0.000000  -0.000000
    114       0.000060   0.002698   0.010644   0.002401  -0.000000  -0.000000
    115       0.000011   0.000479   0.001891   0.000426  -0.000000  -0.000000
    116       0.000030   0.001367   0.005394   0.001217  -0.000000  -0.000000
    117       0.000011   0.000502   0.001979   0.000446  -0.000000  -0.000000
    118       0.003277   0.011595   0.014966   0.003687  -0.000197  -0.000672
    119       0.013656   0.048317   0.062367   0.015364  -0.001789  -0.001897
    120       0.002426   0.008584   0.011080   0.002730  -0.000318  -0.000383
    121       0.006921   0.024486   0.031607   0.007787  -0.001043  -0.000822
    122       0.002539   0.008984   0.011596   0.002857  -0.000383  -0.000353
    123       0.000255   0.002571   0.001617   0.000159  -0.000006  -0.000004
    124      -0.000676  -0.006806  -0.004279  -0.000422   0.000011   0.000014
    125      -0.000120  -0.001209  -0.000760  -0.000075   0.000002   0.000003
    126      -0.000755  -0.007600  -0.004779  -0.000471   0.000015   0.000014
    127      -0.000277  -0.002788  -0.001753  -0.000173   0.000005   0.000006
    128       0.000302   0.003036   0.001909   0.000188  -0.000006  -0.000005
    129       0.000176   0.001768   0.001112   0.000110  -0.000004  -0.000003
                 12         13         14         15         16         17    
      0       0.000000  -0.000000  -0.000000  -0.000000   0.000000   0.000000
      1      -0.000000  -0.000000   0.000000   0.000000  -0.000000  -0.000000
      2      -0.000000  -0.000000   0.000000  -0.000000   0.000000  -0.000000
      3      -0.000000  -0.000000  -0.000000  -0.000000   0.000000   0.000000
      4      -0.000000   0.000000   0.000000   0.000000  -0.000000  -0.000000
      5      -0.000000  -0.000000   0.000000   0.000000   0.000000  -0.000000
      6       0.000000   0.000000   0.000000   0.000000   0.000000   0.000000
      7      -0.000000  -0.000000   0.000000  -0.000000  -0.000000   0.000000
      8       0.000000  -0.000000  -0.000000  -0.000000   0.000000   0.000000
      9      -0.000000   0.000000   0.000000   0.000000   0.000000   0.000000
     10      -0.000000   0.630067   0.000000   0.000000  -0.828563   0.000000
     11      -0.000000   0.000000   0.630067  -0.000000   0.000000  -0.828563
     12       1.000000   0.000000  -0.000000   0.630067  -0.000000   0.000000
     13       0.000000   1.000000   0.000000   0.000000  -0.818045  -0.000000
     14      -0.000000   0.000000   1.000000   0.000000  -0.000000  -0.818045
     15       0.630067   0.000000   0.000000   1.000000  -0.000000  -0.000000
     16      -0.000000  -0.818045  -0.000000  -0.000000   1.000000   0.000000
     17       0.000000  -0.000000  -0.818045  -0.000000   0.000000   1.000000
     18      -0.828563  -0.000000  -0.000000  -0.818045   0.000000   0.000000
     19       0.000000  -0.505259  -0.000000  -0.000000   0.802213   0.000000
     20      -0.000000  -0.000000  -0.505259   0.000000   0.000000   0.802213
     21      -0.534135  -0.000000   0.000000  -0.505259   0.000000   0.000000
     22      -0.000000  -0.241661  -0.000000  -0.000000   0.440617   0.000000
     23      -0.000000  -0.000000  -0.241661  -0.000000   0.000000   0.440617
     24      -0.247809  -0.000000  -0.000000  -0.241661   0.000000   0.000000
     25      -0.000000  -0.080099  -0.000000  -0.000000   0.157090   0.000000
     26       0.000000  -0.000000  -0.080099  -0.000000   0.000000   0.157090
     27      -0.079466  -0.000000  -0.000000  -0.080099   0.000000   0.000000
     28       0.000000  -0.019410   0.000000   0.000000   0.039209   0.000000
     29       0.000000   0.000000  -0.019410   0.000000   0.000000   0.039209
     30      -0.018931   0.000000   0.000000  -0.019410   0.000000   0.000000
     31      -0.000000   0.000000   0.000000  -0.000000   0.000000  -0.000000
     32       0.000000  -0.000000   0.000000   0.000000   0.000000   0.000000
     33      -0.000000   0.000000   0.000000   0.000000  -0.000000  -0.000000
     34      -0.000000  -0.000000  -0.000000  -0.000000  -0.000000   0.000000
     35      -0.000000   0.000000   0.000000  -0.000000  -0.000000  -0.000000
     36       0.000000  -0.000000   0.000000   0.000000   0.000000   0.000000
     37       0.000000  -0.000000  -0.000000   0.000000   0.000000   0.000000
     38      -0.000000   0.000000   0.000000  -0.000000   0.000000   0.000000
     39       0.000000   0.000000  -0.000000   0.000000   0.000000   0.000000
     40       0.000000   0.000000   0.000000  -0.000000   0.000000   0.000000
     41       0.000000  -0.000000  -0.000000   0.000000  -0.000000   0.000000
     42      -0.000000   0.000000  -0.000000   0.000000  -0.000000  -0.000000
     43      -0.000000  -0.000000   0.000000  -0.000000   0.000000   0.000000
     44       0.000000   0.000000   0.000000   0.000000   0.000000  -0.000000
     45      -0.000000   0.000000  -0.000000   0.000000   0.000000   0.000000
     46      -0.000000  -0.000000   0.000000   0.000000   0.000000   0.000000
     47       0.000000  -0.000000  -0.000000   0.000000   0.000000   0.000000
     48      -0.000000  -0.000000   0.000000  -0.000000   0.000000   0.000000
     49      -0.000000   0.000000  -0.000000   0.000000  -0.000000   0.000000
     50      -0.000000   0.000000  -0.000000  -0.000000   0.000000   0.000000
     51       0.000000  -0.000000  -0.000000   0.000000   0.000000   0.000000
     52      -0.000000   0.000000  -0.000000   0.000000   0.000000   0.000000
     53      -0.000000  -0.000000   0.000000  -0.000000  -0.000000   0.000000
     54       0.000000   0.000000   0.000000   0.000000   0.000000   0.000000
     55      -0.000000   0.000000  -0.000000   0.000000   0.000000  -0.000000
     56      -0.000000  -0.000000   0.000000   0.000000  -0.000000   0.000000
     57      -0.000000  -0.000000   0.000000   0.000000   0.000000  -0.000000
     58      -0.000000  -0.000000   0.000000   0.000000   0.000000   0.000000
     59      -0.000000   0.000000  -0.000000   0.000000  -0.000000   0.000000
     60       0.000000  -0.000000  -0.000000  -0.000000   0.000000   0.000000
     61       0.000000  -0.000000   0.000000  -0.000000   0.000000   0.000000
     62       0.000000  -0.000000   0.000000  -0.000000  -0.000000   0.000000
     63       0.000000   0.000000   0.000000   0.000000  -0.000000   0.000000
     64       0.000000  -0.000000   0.000000   0.000000   0.000000   0.000000
     65       0.000000   0.000000   0.000000   0.000000   0.000000   0.000000
     66       0.000000   0.000000  -0.000000   0.000000  -0.000000   0.000000
     67      -0.000000   0.000000   0.000000  -0.000000   0.000000   0.000000
     68      -0.000000   0.000000   0.000000   0.000000   0.000000  -0.000000
     69      -0.000000   0.000000   0.000000  -0.000000   0.000000   0.000000
     70       0.000000   0.000000   0.000000   0.000000  -0.000000   0.000000
     71      -0.000000  -0.000000  -0.000000   0.000000   0.000000  -0.000000
     72       0.000000  -0.000000   0.000000  -0.000000   0.000000   0.000000
     73       0.000000   0.000000  -0.000000   0.000000  -0.000000   0.000000
     74      -0.000000  -0.000000  -0.000000  -0.000000   0.000000   0.000000
     75       0.000000   0.000000   0.000000  -0.000000   0.000000   0.000000
     76      -0.000000  -0.000000   0.000000  -0.000000   0.000000   0.000000
     77      -0.000000   0.000000   0.000000   0.000000  -0.000000   0.000000
     78      -0.000000  -0.000000  -0.000000   0.000000  -0.000000   0.000000
     79      -0.000000  -0.000000   0.000000  -0.000000   0.000000   0.000000
     80      -0.000000   0.000000  -0.000000   0.000000  -0.000000  -0.000000
     81       0.000000   0.000000  -0.000000  -0.000000   0.000000   0.000000
     82       0.000000  -0.000000  -0.000000   0.000000   0.000000  -0.000000
     83       0.000000  -0.000000   0.000000   0.000000   0.000000   0.000000
     84      -0.000000  -0.000000  -0.000000   0.000000   0.000000   0.000000
     85       0.000000  -0.000000  -0.000000   0.000000   0.000000   0.000000
     86      -0.000000   0.000000   0.000000  -0.000000   0.000000   0.000000
     87      -0.000000   0.000000   0.000000   0.000000   0.000000   0.000000
     88      -0.000000   0.000000   0.000000   0.000000   0.000000   0.000000
     89       0.000000   0.000000   0.000000   0.000000   0.000000   0.000000
     90      -0.000000  -0.000000   0.000000  -0.000000   0.000000   0.000000
     91       0.000000   0.000000   0.000000   0.000000   0.000000   0.000000
     92       0.000000   0.000000   0.000000   0.000000   0.000000   0.000000
     93       0.000000   0.000000   0.000000   0.000000   0.000000   0.000000
     94       0.000000   0.000000   0.000000   0.000000   0.000000   0.000000
     95       0.000000   0.000000   0.000000   0.000000   0.000000   0.000000
     96      -0.000001  -0.000013  -0.000014  -0.000002   0.000039   0.000040
     97      -0.000365  -0.002086  -0.002183  -0.000388   0.004457   0.004665
     98       0.000000   0.000000   0.000000   0.000000   0.000000   0.000000
     99       0.000000   0.000000   0.000000   0.000000   0.000000   0.000000
    100       0.000000   0.000000   0.000000   0.000000   0.000000   0.000000
    101       0.000000   0.000000   0.000000   0.000000   0.000000   0.000000
    102       0.000000   0.000000   0.000000   0.000000   0.000000   0.000000
    103       0.000000   0.000000   0.000000   0.000000   0.000000   0.000000
    104       0.000000   0.000000   0.000000   0.000000  -0.000000  -0.000000
    105       0.000000   0.000000   0.000000   0.000000  -0.000000  -0.000000
    106      -0.000000   0.000000   0.000000  -0.000000  -0.000000  -0.000000
    107       0.000046   0.000273   0.000325   0.000058  -0.000689  -0.000825
    108       0.000048   0.000325   0.000303   0.000060  -0.000825  -0.000764
    109      -0.000020   0.000058   0.000060  -0.000027  -0.000147  -0.000153
    110       0.001721   0.006439   0.009988   0.001774  -0.013021  -0.020364
    111       0.001802   0.009988   0.007349   0.001857  -0.020364  -0.014877
    112      -0.002658   0.001774   0.001857  -0.002774  -0.003618  -0.003786
    113      -0.000000  -0.000000  -0.000000  -0.000000   0.000000   0.000000
    114      -0.000000  -0.000000  -0.000000  -0.000000   0.000001   0.000001
    115       0.000000  -0.000000  -0.000000   0.000000   0.000000   0.000000
    116      -0.000000  -0.000000  -0.000000  -0.000000   0.000001   0.000001
    117       0.000000  -0.000000  -0.000000   0.000000   0.000000   0.000000
    118      -0.000119  -0.000212  -0.000772  -0.000137   0.000466   0.001813
    119      -0.000383  -0.002025  -0.002149  -0.000436   0.004696   0.004985
    120       0.000189  -0.000360  -0.000436   0.000226   0.000834   0.001015
    121      -0.000242  -0.001187  -0.000925  -0.000277   0.002768   0.002132
    122       0.000198  -0.000436  -0.000399   0.000236   0.001015   0.000927
    123      -0.000001  -0.000013  -0.000008  -0.000001   0.000042   0.000025
    124       0.000003   0.000023   0.000030   0.000006  -0.000076  -0.000100
    125      -0.000000   0.000004   0.000006  -0.000001  -0.000013  -0.000019
    126       0.000003   0.000031   0.000030   0.000007  -0.000100  -0.000097
    127      -0.000001   0.000011   0.000012  -0.000003  -0.000037  -0.000039
    128      -0.000002  -0.000013  -0.000011  -0.000004   0.000043   0.000035
    129       0.000001  -0.000008  -0.000007   0.000002   0.000025   0.000023
                 18         19         20         21         22         23    
      0      -0.000000   0.000000  -0.000000   0.000000   0.000000  -0.000000
      1      -0.000000   0.000000  -0.000000   0.000000   0.000000   0.000000
      2       0.000000   0.000000  -0.000000  -0.000000   0.000000  -0.000000
      3       0.000000   0.000000  -0.000000   0.000000   0.000000  -0.000000
      4       0.000000   0.000000  -0.000000   0.000000  -0.000000  -0.000000
      5      -0.000000  -0.000000   0.000000  -0.000000   0.000000   0.000000
      6       0.000000   0.000000  -0.000000   0.000000   0.000000  -0.000000
      7       0.000000   0.000000  -0.000000  -0.000000   0.000000   0.000000
      8       0.000000   0.000000   0.000000   0.000000   0.000000   0.000000
      9       0.000000   0.000000  -0.000000   0.000000   0.000000   0.000000
     10      -0.000000  -0.534135  -0.000000   0.000000  -0.247809  -0.000000
     11       0.000000  -0.000000  -0.534135  -0.000000  -0.000000  -0.247809
     12      -0.828563   0.000000  -0.000000  -0.534135  -0.000000  -0.000000
     13      -0.000000  -0.505259  -0.000000  -0.000000  -0.241661  -0.000000
     14      -0.000000  -0.000000  -0.505259   0.000000  -0.000000  -0.241661
     15      -0.818045  -0.000000   0.000000  -0.505259  -0.000000  -0.000000
     16       0.000000   0.802213   0.000000   0.000000   0.440617   0.000000
     17       0.000000   0.000000   0.802213   0.000000   0.000000   0.440617
     18       1.000000   0.000000   0.000000   0.802213   0.000000   0.000000
     19       0.000000   1.000000   0.000000   0.000000   0.800237   0.000000
     20       0.000000   0.000000   1.000000   0.000000   0.000000   0.800237
     21       0.802213   0.000000   0.000000   1.000000   0.000000   0.000000
     22       0.000000   0.800237   0.000000   0.000000   1.000000   0.000000
     23       0.000000   0.000000   0.800237   0.000000   0.000000   1.000000
     24       0.440617   0.000000   0.000000   0.800237   0.000000   0.000000
     25       0.000000   0.374799   0.000000   0.000000   0.726455   0.000000
     26       0.000000   0.000000   0.374799   0.000000   0.000000   0.726455
     27       0.157090   0.000000   0.000000   0.374799   0.000000   0.000000
     28       0.000000   0.106774   0.000000   0.000000   0.269945   0.000000
     29       0.000000   0.000000   0.106774   0.000000   0.000000   0.269945
     30       0.039209   0.000000   0.000000   0.106774   0.000000   0.000000
     31       0.000000   0.000000   0.000000  -0.000000   0.000000   0.000000
     32      -0.000000  -0.000000   0.000000  -0.000000  -0.000000   0.000000
     33       0.000000   0.000000  -0.000000   0.000000  -0.000000   0.000000
     34       0.000000  -0.000000  -0.000000  -0.000000   0.000000  -0.000000
     35       0.000000  -0.000000   0.000000  -0.000000   0.000000  -0.000000
     36       0.000000   0.000000   0.000000   0.000000  -0.000000   0.000000
     37       0.000000   0.000000   0.000000   0.000000  -0.000000  -0.000000
     38       0.000000  -0.000000   0.000000   0.000000  -0.000000  -0.000000
     39       0.000000   0.000000   0.000000   0.000000   0.000000  -0.000000
     40       0.000000   0.000000  -0.000000   0.000000  -0.000000  -0.000000
     41       0.000000   0.000000   0.000000   0.000000   0.000000  -0.000000
     42       0.000000   0.000000   0.000000   0.000000   0.000000   0.000000
     43      -0.000000   0.000000   0.000000   0.000000   0.000000   0.000000
     44       0.000000   0.000000   0.000000   0.000000  -0.000000   0.000000
     45      -0.000000   0.000000   0.000000   0.000000   0.000000   0.000000
     46       0.000000   0.000000  -0.000000   0.000000  -0.000000   0.000000
     47       0.000000   0.000000   0.000000   0.000000  -0.000000  -0.000000
     48       0.000000   0.000000   0.000000   0.000000  -0.000000  -0.000000
     49       0.000000   0.000000   0.000000   0.000000   0.000000  -0.000000
     50       0.000000   0.000000   0.000000   0.000000  -0.000000  -0.000000
     51       0.000000  -0.000000   0.000000   0.000000   0.000000  -0.000000
     52       0.000000   0.000000  -0.000000   0.000000   0.000000   0.000000
     53       0.000000   0.000000   0.000000  -0.000000   0.000000   0.000000
     54       0.000000   0.000000   0.000000   0.000000  -0.000000   0.000000
     55       0.000000   0.000000   0.000000   0.000000   0.000000   0.000000
     56      -0.000000  -0.000000  -0.000000  -0.000000  -0.000000   0.000000
     57       0.000000   0.000000   0.000000   0.000000  -0.000000  -0.000000
     58       0.000000   0.000000   0.000000   0.000000   0.000000   0.000000
     59      -0.000000  -0.000000   0.000000  -0.000000  -0.000000  -0.000000
     60       0.000000  -0.000000   0.000000   0.000000  -0.000000   0.000000
     61       0.000000   0.000000  -0.000000  -0.000000   0.000000  -0.000000
     62      -0.000000   0.000000   0.000000  -0.000000   0.000000   0.000000
     63       0.000000   0.000000   0.000000   0.000000  -0.000000   0.000000
     64       0.000000   0.000000  -0.000000   0.000000   0.000000   0.000000
     65       0.000000   0.000000   0.000000  -0.000000   0.000000   0.000000
     66       0.000000  -0.000000   0.000000   0.000000  -0.000000   0.000000
     67       0.000000   0.000000   0.000000   0.000000   0.000000   0.000000
     68       0.000000   0.000000  -0.000000   0.000000   0.000000  -0.000000
     69       0.000000   0.000000   0.000000   0.000000   0.000000   0.000000
     70       0.000000   0.000000   0.000000   0.000000  -0.000000   0.000000
     71       0.000000   0.000000  -0.000000   0.000000   0.000000  -0.000000
     72      -0.000000   0.000000   0.000000  -0.000000   0.000000   0.000000
     73       0.000000  -0.000000   0.000000   0.000000  -0.000000   0.000000
     74       0.000000   0.000000   0.000000   0.000000   0.000000   0.000000
     75       0.000000   0.000000  -0.000000   0.000000   0.000000  -0.000000
     76      -0.000000   0.000000   0.000000   0.000000   0.000000   0.000000
     77       0.000000  -0.000000   0.000000   0.000000  -0.000000   0.000000
     78       0.000000   0.000000  -0.000000   0.000000   0.000000  -0.000000
     79       0.000000   0.000000   0.000000   0.000000   0.000000   0.000000
     80       0.000000  -0.000000   0.000000   0.000000  -0.000000   0.000000
     81      -0.000000   0.000000   0.000000   0.000000   0.000000   0.000000
     82       0.000000   0.000000  -0.000000   0.000000   0.000000  -0.000000
     83      -0.000000   0.000000   0.000000  -0.000000  -0.000000   0.000000
     84       0.000000   0.000000   0.000000   0.000000   0.000000   0.000000
     85       0.000000   0.000000   0.000000   0.000000   0.000000   0.000000
     86       0.000000   0.000000   0.000000   0.000000  -0.000000   0.000000
     87       0.000000   0.000000   0.000000   0.000000   0.000000   0.000000
     88       0.000000   0.000000   0.000000   0.000000   0.000000   0.000000
     89       0.000000   0.000000   0.000000   0.000000   0.000000  -0.000000
     90       0.000000   0.000000   0.000000   0.000000  -0.000000   0.000000
     91       0.000000   0.000000   0.000000   0.000000  -0.000000   0.000000
     92       0.000000   0.000000   0.000000   0.000000   0.000000   0.000000
     93       0.000000   0.000000   0.000000   0.000000   0.000024   0.000025
     94       0.000000  -0.000000  -0.000000  -0.000000  -0.000145  -0.000152
     95       0.000000   0.000000   0.000000   0.000000   0.000487   0.000510
     96       0.000007   0.000583   0.000610   0.000108   0.009845   0.010304
     97       0.000829   0.015325   0.016040   0.002849   0.055408   0.057990
     98       0.000000  -0.000000  -0.000000  -0.000000  -0.000078  -0.000093
     99       0.000000  -0.000000  -0.000000  -0.000000  -0.000093  -0.000087
    100       0.000000  -0.000000  -0.000000   0.000000  -0.000016  -0.000017
    101       0.000000  -0.000000  -0.000000  -0.000000  -0.000473  -0.000567
    102       0.000000  -0.000000  -0.000000  -0.000000  -0.000567  -0.000525
    103       0.000000  -0.000000  -0.000000   0.000000  -0.000101  -0.000105
    104      -0.000000  -0.000050  -0.000057  -0.000010  -0.003598  -0.004441
    105      -0.000000  -0.000057  -0.000055  -0.000011  -0.004441  -0.004003
    106       0.000000  -0.000010  -0.000011   0.000003  -0.000789  -0.000826
    107      -0.000147  -0.004415  -0.005458  -0.000970  -0.027271  -0.036520
    108      -0.000153  -0.005458  -0.004912  -0.001015  -0.036520  -0.030600
    109       0.000072  -0.000970  -0.001015   0.000620  -0.006488  -0.006790
    110      -0.003618  -0.035072  -0.057202  -0.010162  -0.081023  -0.147050
    111      -0.003786  -0.057202  -0.040285  -0.010636  -0.147050  -0.094425
    112       0.005764  -0.010162  -0.010636   0.017693  -0.026124  -0.027341
    113       0.000000   0.000028   0.000058   0.000010   0.000573   0.002728
    114       0.000000   0.000177   0.000186   0.000036   0.006807   0.007236
    115      -0.000000   0.000031   0.000036  -0.000010   0.001209   0.001494
    116       0.000000   0.000098   0.000086   0.000021   0.004072   0.003034
    117      -0.000000   0.000036   0.000035  -0.000010   0.001494   0.001345
    118       0.000322   0.001356   0.008567   0.001522  -0.001619   0.037433
    119       0.001015   0.020496   0.021827   0.004578   0.074520   0.080052
    120      -0.000551   0.003641   0.004578  -0.003130   0.013239   0.018056
    121       0.000651   0.012478   0.008933   0.003053   0.049215   0.028918
    122      -0.000576   0.004578   0.004058  -0.003275   0.018056   0.014884
    123       0.000005   0.000854   0.000407   0.000072   0.009236   0.001935
    124      -0.000019  -0.001333  -0.001930  -0.000377  -0.009722  -0.018668
    125       0.000004  -0.000237  -0.000377   0.000123  -0.001727  -0.003852
    126      -0.000023  -0.001886  -0.001768  -0.000470  -0.017157  -0.014691
    127       0.000009  -0.000692  -0.000732   0.000295  -0.006295  -0.006706
    128       0.000012   0.000842   0.000609   0.000256   0.008261   0.004329
    129      -0.000006   0.000490   0.000413  -0.000181   0.004812   0.003452
                 24         25         26         27         28         29    
      0       0.000000   0.000000   0.000000   0.000000   0.000000  -0.000000
      1       0.000000   0.000000   0.000000   0.000000  -0.000000  -0.000000
      2       0.000000   0.000000   0.000000   0.000000   0.000000   0.000000
      3       0.000000   0.000000   0.000000   0.000000   0.000000   0.000000
      4      -0.000000   0.000000   0.000000  -0.000000   0.000000   0.000000
      5       0.000000  -0.000000   0.000000   0.000000   0.000000   0.000000
      6       0.000000   0.000000  -0.000000   0.000000   0.000000  -0.000000
      7       0.000000   0.000000   0.000000   0.000000   0.000000   0.000000
      8       0.000000   0.000000   0.000000   0.000000   0.000000   0.000000
      9       0.000000   0.000000  -0.000000   0.000000   0.000000   0.000000
     10      -0.000000  -0.079466  -0.000000  -0.000000  -0.018931   0.000000
     11      -0.000000  -0.000000  -0.079466   0.000000   0.000000  -0.018931
     12      -0.247809  -0.000000   0.000000  -0.079466   0.000000   0.000000
     13      -0.000000  -0.080099  -0.000000  -0.000000  -0.019410   0.000000
     14      -0.000000  -0.000000  -0.080099  -0.000000   0.000000  -0.019410
     15      -0.241661  -0.000000  -0.000000  -0.080099   0.000000   0.000000
     16       0.000000   0.157090   0.000000   0.000000   0.039209   0.000000
     17       0.000000   0.000000   0.157090   0.000000   0.000000   0.039209
     18       0.440617   0.000000   0.000000   0.157090   0.000000   0.000000
     19       0.000000   0.374799   0.000000   0.000000   0.106774   0.000000
     20       0.000000   0.000000   0.374799   0.000000   0.000000   0.106774
     21       0.800237   0.000000   0.000000   0.374799   0.000000   0.000000
     22       0.000000   0.726455   0.000000   0.000000   0.269945   0.000000
     23       0.000000   0.000000   0.726455   0.000000   0.000000   0.269945
     24       1.000000   0.000000   0.000000   0.726455   0.000000   0.000000
     25       0.000000   1.000000   0.000000   0.000000   0.655023   0.000000
     26       0.000000   0.000000   1.000000   0.000000   0.000000   0.655023
     27       0.726455   0.000000   0.000000   1.000000   0.000000  -0.000000
     28       0.000000   0.655023   0.000000   0.000000   1.000000   0.000000
     29       0.000000   0.000000   0.655023  -0.000000   0.000000   1.000000
     30       0.269945   0.000000  -0.000000   0.655023   0.000000   0.000000
     31       0.000000  -0.000000   0.000000   0.000000   0.000000  -0.000000
     32       0.000000  -0.000000  -0.000000   0.000000   0.000000   0.000000
     33       0.000000  -0.000000   0.000000  -0.000000   0.000000   0.000000
     34       0.000000   0.000000  -0.000000   0.000000  -0.000000   0.000000
     35      -0.000000   0.000000  -0.000000  -0.000000   0.000000   0.000000
     36       0.000000   0.000000   0.000000   0.000000   0.000000   0.000000
     37      -0.000000  -0.000000   0.000000   0.000000   0.000000   0.000000
     38      -0.000000  -0.000000   0.000000   0.000000  -0.000000   0.000000
     39       0.000000   0.000000  -0.000000   0.000000   0.000000   0.000000
     40      -0.000000   0.000000  -0.000000  -0.000000   0.000000  -0.000000
     41      -0.000000   0.000000  -0.000000  -0.000000   0.000000   0.000000
     42       0.000000   0.000000   0.000000   0.000000  -0.000000   0.000000
     43       0.000000   0.000000   0.000000   0.000000   0.000000   0.000000
     44      -0.000000  -0.000000   0.000000  -0.000000   0.000000  -0.000000
     45       0.000000   0.000000   0.000000   0.000000   0.000000   0.000000
     46       0.000000   0.000000   0.000000  -0.000000   0.000000   0.000000
     47      -0.000000   0.000000   0.000000   0.000000   0.000000   0.000000
     48      -0.000000   0.000000   0.000000   0.000000  -0.000000   0.000000
     49       0.000000   0.000000   0.000000  -0.000000   0.000000   0.000000
     50      -0.000000   0.000000   0.000000   0.000000   0.000000  -0.000000
     51      -0.000000   0.000000   0.000000  -0.000000   0.000000  -0.000000
     52       0.000000   0.000000   0.000000   0.000000   0.000000   0.000000
     53       0.000000   0.000000   0.000000   0.000000   0.000000   0.000000
     54      -0.000000  -0.000000   0.000000  -0.000000  -0.000000   0.000000
     55       0.000000   0.000000   0.000000   0.000000   0.000000   0.000000
     56      -0.000000  -0.000000   0.000000  -0.000000  -0.000000  -0.000000
     57       0.000000  -0.000000  -0.000000   0.000000   0.000000   0.000000
     58      -0.000000   0.000000   0.000000  -0.000000   0.000000  -0.000000
     59      -0.000000  -0.000000  -0.000000  -0.000000  -0.000000   0.000000
     60      -0.000000  -0.000000   0.000000  -0.000000   0.000000   0.000000
     61      -0.000000  -0.000000  -0.000000  -0.000000  -0.000000  -0.000000
     62       0.000000   0.000000   0.000000   0.000000  -0.000000  -0.000000
     63      -0.000000  -0.000000   0.000000   0.000000  -0.000000   0.000000
     64       0.000000   0.000000   0.000000   0.000000   0.000000   0.000000
     65       0.000000   0.000000   0.000000   0.000000   0.000000   0.000000
     66      -0.000000  -0.000000   0.000000   0.000000  -0.000000   0.000000
     67       0.000000   0.000000   0.000000   0.000000   0.000000   0.000000
     68       0.000000   0.000000  -0.000000   0.000000   0.000000   0.000000
     69      -0.000000   0.000000   0.000000   0.000000   0.000000   0.000000
     70       0.000000  -0.000000  -0.000000  -0.000000   0.000000   0.000000
     71       0.000000   0.000000  -0.000000  -0.000000   0.000000  -0.000000
     72      -0.000000   0.000000  -0.000000  -0.000000   0.000000   0.000000
     73       0.000000  -0.000000   0.000000  -0.000000  -0.000000   0.000000
     74       0.000000   0.000000   0.000000   0.000000   0.000000   0.000000
     75       0.000000  -0.000000  -0.000000   0.000000   0.000000  -0.000000
     76       0.000000   0.000000  -0.000000   0.000000   0.000000   0.000000
     77      -0.000000  -0.000000   0.000000   0.000000  -0.000000   0.000000
     78       0.000000   0.000000  -0.000000  -0.000000   0.000000  -0.000000
     79      -0.000000   0.000000  -0.000000  -0.000000   0.000000   0.000000
     80      -0.000000  -0.000000   0.000000   0.000000  -0.000000   0.000000
     81       0.000000   0.000000   0.000000   0.000000   0.000000   0.000000
     82       0.000000   0.000000   0.000000   0.000000   0.000000  -0.000000
     83       0.000000   0.000000  -0.000000  -0.000000   0.000000   0.000000
     84      -0.000000  -0.000000  -0.000000   0.000000   0.000000  -0.000000
     85       0.000000   0.000000  -0.000000   0.000000  -0.000000   0.000000
     86       0.000000   0.000000   0.000000  -0.000000   0.000000   0.000000
     87      -0.000000   0.000000   0.000000   0.000000   0.000000   0.000000
     88       0.000000   0.000000   0.000000  -0.000000   0.000000   0.000000
     89       0.000000   0.000000   0.000000   0.000000  -0.000000   0.000000
     90       0.000000   0.000000   0.000000   0.000000   0.000000   0.000000
     91       0.000000   0.000000   0.000000   0.000000   0.000000   0.000000
     92       0.000000   0.000000   0.000000   0.000000   0.000000   0.000000
     93       0.000004   0.002671   0.002795   0.000497   0.006197   0.006485
     94      -0.000027  -0.012518  -0.013102  -0.002328  -0.028481  -0.029808
     95       0.000091   0.025569   0.026760   0.004754   0.056092   0.058706
     96       0.001831   0.099455   0.104090   0.018492   0.184695   0.193303
     97       0.010302   0.202062   0.211479   0.037570   0.328744   0.344066
     98      -0.000016  -0.001983  -0.003063  -0.000544   0.000113  -0.002137
     99      -0.000017  -0.003063  -0.002262  -0.000569  -0.002137  -0.000082
    100       0.000007  -0.000544  -0.000569   0.000842  -0.000380  -0.000397
    101      -0.000101  -0.008169  -0.012784  -0.002271   0.000537  -0.008792
    102      -0.000105  -0.012784  -0.009335  -0.002377  -0.008792  -0.000264
    103       0.000050  -0.002271  -0.002377   0.003623  -0.001562  -0.001635
    104      -0.000789  -0.028009  -0.045544  -0.008091   0.002591  -0.030413
    105      -0.000826  -0.045544  -0.032160  -0.008468  -0.030413  -0.000181
    106       0.000498  -0.008091  -0.008468   0.014003  -0.005403  -0.005655
    107      -0.006488  -0.076616  -0.138936  -0.024682   0.013495  -0.090732
    108      -0.006790  -0.138936  -0.089278  -0.025833  -0.090732   0.005226
    109       0.006416  -0.024682  -0.025833   0.051544  -0.016119  -0.016870
    110      -0.026124  -0.108695  -0.305590  -0.054289   0.078163  -0.226895
    111      -0.027341  -0.305590  -0.136546  -0.056819  -0.226895   0.057485
    112       0.054621  -0.054289  -0.056819   0.173193  -0.040308  -0.042187
    113       0.000485  -0.005333   0.015846   0.002815  -0.007292   0.006671
    114       0.001494   0.022282   0.024448   0.006443  -0.000681   0.000040
    115      -0.000908   0.003958   0.006443  -0.010676  -0.000121   0.001409
    116       0.000975   0.017562   0.006009   0.005463   0.003840  -0.004239
    117      -0.000951   0.006443   0.004546  -0.011173   0.001409   0.000007
    118       0.006650  -0.042634   0.088630   0.015745  -0.045223   0.039881
    119       0.018056   0.099102   0.110733   0.032730  -0.007310  -0.003062
    120      -0.018377   0.017606   0.032730  -0.067692  -0.001299   0.008003
    121       0.013164   0.089212   0.016438   0.030255   0.021813  -0.027522
    122      -0.019233   0.032730   0.020589  -0.070847   0.008003  -0.000569
    123       0.000344   0.017154  -0.006513  -0.001157   0.002341  -0.003008
    124      -0.003852   0.001194  -0.025631  -0.006249   0.004199  -0.001601
    125       0.002331   0.000212  -0.006249   0.008434   0.000746  -0.000663
    126      -0.005081  -0.018605  -0.009136  -0.009444   0.000242   0.002559
    127       0.005544  -0.006826  -0.007517   0.019981   0.000089   0.000010
    128       0.003120   0.011887  -0.001221   0.007223   0.000897  -0.002108
    129      -0.003422   0.006924   0.002235  -0.012375   0.000523  -0.000571
                 30         31         32         33         34         35    
      0       0.000000   0.000000   0.000000   0.000000  -0.000000   0.000000
      1      -0.000000  -0.000000   0.000000   0.000000  -0.000000   0.000000
      2       0.000000  -0.000000   0.000000   0.000000  -0.000000  -0.000000
      3       0.000000   0.000000   0.000000   0.000000  -0.000000   0.000000
      4       0.000000   0.000000   0.000000   0.000000  -0.000000   0.000000
      5       0.000000   0.000000   0.000000   0.000000  -0.000000   0.000000
      6       0.000000   0.000000   0.000000   0.000000  -0.000000   0.000000
      7       0.000000  -0.000000   0.000000   0.000000  -0.000000   0.000000
      8       0.000000   0.000000   0.000000   0.000000  -0.000000   0.000000
      9       0.000000   0.000000   0.000000   0.000000  -0.000000  -0.000000
     10       0.000000  -0.000000  -0.000000   0.000000   0.000000   0.000000
     11       0.000000   0.000000  -0.000000   0.000000  -0.000000   0.000000
     12      -0.018931  -0.000000   0.000000  -0.000000  -0.000000  -0.000000
     13       0.000000   0.000000  -0.000000   0.000000  -0.000000   0.000000
     14       0.000000   0.000000   0.000000   0.000000  -0.000000   0.000000
     15      -0.019410  -0.000000   0.000000   0.000000  -0.000000  -0.000000
     16       0.000000   0.000000   0.000000  -0.000000  -0.000000  -0.000000
     17       0.000000  -0.000000   0.000000  -0.000000   0.000000  -0.000000
     18       0.039209   0.000000  -0.000000   0.000000   0.000000   0.000000
     19       0.000000   0.000000  -0.000000   0.000000  -0.000000  -0.000000
     20       0.000000   0.000000   0.000000  -0.000000  -0.000000   0.000000
     21       0.106774  -0.000000  -0.000000   0.000000  -0.000000  -0.000000
     22       0.000000   0.000000  -0.000000  -0.000000   0.000000   0.000000
     23       0.000000   0.000000   0.000000   0.000000  -0.000000  -0.000000
     24       0.269945   0.000000   0.000000   0.000000   0.000000  -0.000000
     25       0.000000  -0.000000  -0.000000  -0.000000   0.000000   0.000000
     26      -0.000000   0.000000  -0.000000   0.000000  -0.000000  -0.000000
     27       0.655023   0.000000   0.000000  -0.000000   0.000000  -0.000000
     28       0.000000   0.000000   0.000000   0.000000  -0.000000   0.000000
     29       0.000000  -0.000000   0.000000   0.000000   0.000000   0.000000
     30       1.000000  -0.000000   0.000000   0.000000  -0.000000   0.000000
     31      -0.000000   1.000000   0.000000   0.000000   0.000000  -0.000000
     32       0.000000   0.000000   1.000000   0.000000   0.000000   0.000000
     33       0.000000   0.000000   0.000000   1.000000  -0.000000   0.000000
     34      -0.000000   0.000000   0.000000  -0.000000   1.000000   0.000000
     35       0.000000  -0.000000   0.000000   0.000000   0.000000   1.000000
     36       0.000000   0.654691  -0.000000   0.000000   0.000000   0.000000
     37       0.000000  -0.000000   0.654691   0.000000  -0.000000   0.000000
     38       0.000000   0.000000   0.000000   0.654691  -0.000000  -0.000000
     39       0.000000   0.000000  -0.000000  -0.000000   0.654691   0.000000
     40       0.000000   0.000000   0.000000  -0.000000   0.000000   0.654691
     41       0.000000   0.283601   0.000000   0.000000  -0.000000  -0.000000
     42       0.000000   0.000000   0.283601   0.000000   0.000000   0.000000
     43       0.000000   0.000000   0.000000   0.283601  -0.000000   0.000000
     44       0.000000   0.000000   0.000000  -0.000000   0.283601   0.000000
     45      -0.000000  -0.000000   0.000000   0.000000   0.000000   0.283601
     46       0.000000   0.065521   0.000000   0.000000   0.000000  -0.000000
     47       0.000000   0.000000   0.065521   0.000000   0.000000   0.000000
     48       0.000000   0.000000   0.000000   0.065521  -0.000000   0.000000
     49       0.000000   0.000000   0.000000  -0.000000   0.065521  -0.000000
     50       0.000000  -0.000000   0.000000   0.000000  -0.000000   0.065521
     51       0.000000   0.009685   0.000000   0.000000   0.000000  -0.000000
     52       0.000000   0.000000   0.009685   0.000000   0.000000   0.000000
     53       0.000000   0.000000   0.000000   0.009685  -0.000000   0.000000
     54       0.000000   0.000000   0.000000  -0.000000   0.009685   0.000000
     55       0.000000  -0.000000   0.000000   0.000000   0.000000   0.009685
     56      -0.000000  -0.000000  -0.000000   0.000000  -0.000000   0.000000
     57      -0.000000   0.000000  -0.000000  -0.000000  -0.000000   0.000000
     58      -0.000000  -0.000000  -0.000000  -0.000000  -0.000000  -0.000000
     59      -0.000000   0.000000   0.000000   0.000000  -0.000000   0.000000
     60       0.000000   0.000000  -0.000000   0.000000   0.000000  -0.000000
     61       0.000000  -0.000000   0.000000  -0.000000  -0.000000  -0.000000
     62       0.000000   0.000000   0.000000  -0.000000   0.000000  -0.000000
     63       0.000000   0.000000   0.000000   0.000000   0.000000   0.000000
     64       0.000000  -0.000000   0.000000  -0.000000   0.000000   0.000000
     65       0.000000  -0.000000  -0.000000   0.000000  -0.000000   0.000000
     66       0.000000   0.000000  -0.000000   0.000000   0.000000   0.000000
     67       0.000000  -0.000000  -0.000000  -0.000000   0.000000   0.000000
     68       0.000000   0.000000   0.000000  -0.000000   0.000000  -0.000000
     69      -0.000000  -0.000000   0.000000  -0.000000   0.000000   0.000000
     70      -0.000000  -0.000000   0.000000   0.000000  -0.000000  -0.000000
     71       0.000000  -0.000000  -0.000000   0.000000   0.000000   0.000000
     72      -0.000000  -0.000000   0.000000  -0.000000  -0.000000   0.000000
     73      -0.000000  -0.000000  -0.000000   0.000000  -0.000000   0.000000
     74       0.000000  -0.000000  -0.000000  -0.000000   0.000000  -0.000000
     75       0.000000  -0.000000  -0.000000   0.000000   0.000000  -0.000000
     76       0.000000   0.000000  -0.000000   0.000000   0.000000   0.000000
     77       0.000000  -0.000000  -0.000000   0.000000   0.000000   0.000000
     78       0.000000   0.000000  -0.000000   0.000000  -0.000000   0.000000
     79       0.000000  -0.000000   0.000000  -0.000000  -0.000000  -0.000000
     80       0.000000   0.000000   0.000000   0.000000  -0.000000   0.000000
     81       0.000000   0.000000  -0.000000   0.000000   0.000000  -0.000000
     82       0.000000  -0.000000   0.000000   0.000000  -0.000000  -0.000000
     83      -0.000000  -0.000000   0.000000   0.000000   0.000000  -0.000000
     84       0.000000   0.000000   0.000000  -0.000000  -0.000000   0.000000
     85       0.000000   0.000000  -0.000000   0.000000   0.000000  -0.000000
     86       0.000000   0.000000   0.000000  -0.000000   0.000000   0.000000
     87       0.000000  -0.000000   0.000000  -0.000000  -0.000000   0.000000
     88      -0.000000   0.000000   0.000000   0.000000   0.000000   0.000000
     89       0.000000   0.000000   0.000000   0.000000   0.000000   0.000000
     90       0.000000   0.000000   0.000000  -0.000000  -0.000000   0.000000
     91       0.000000   0.000000   0.000000  -0.000000   0.000000   0.000000
     92      -0.000000   0.000000  -0.000000   0.000000   0.000000   0.000000
     93       0.001152   0.000000   0.000000   0.000000   0.000000   0.000000
     94      -0.005296   0.000000   0.000000   0.000000   0.000000   0.000000
     95       0.010429   0.000000   0.000000   0.000000   0.000000   0.000000
     96       0.034341   0.000001   0.000006   0.000001   0.000003   0.000001
     97       0.061124   0.000157   0.000654   0.000116   0.000332   0.000122
     98      -0.000380   0.000000   0.000000   0.000000   0.000000   0.000000
     99      -0.000397   0.000000   0.000000   0.000000   0.000000   0.000000
    100       0.002084   0.000000   0.000000   0.000000   0.000000   0.000000
    101      -0.001562   0.000000   0.000000   0.000000   0.000000   0.000000
    102      -0.001635   0.000000   0.000000   0.000000   0.000000   0.000000
    103       0.008648   0.000000   0.000000   0.000000   0.000000   0.000000
    104      -0.005403  -0.000000  -0.000000  -0.000000  -0.000000  -0.000000
    105      -0.005655  -0.000000  -0.000000  -0.000000  -0.000000  -0.000000
    106       0.030646  -0.000000  -0.000000   0.000000  -0.000000   0.000000
    107      -0.016119  -0.000017  -0.000136  -0.000024  -0.000078  -0.000028
    108      -0.016870  -0.000049  -0.000143  -0.000028  -0.000064  -0.000027
    109       0.097190  -0.000009  -0.000028   0.000012  -0.000018   0.000012
[...]
  48   0.0000       0.254886         6.9358 
  49   0.0000       0.254887         6.9358 
  50   0.0000       0.264533         7.1983 
  51   0.0000       0.264572         7.1994 
  52   0.0000       0.315230         8.5778 
  53   0.0000       0.315254         8.5785 
  54   0.0000       0.371694        10.1143 
  55   0.0000       0.373777        10.1710 
  56   0.0000       0.405354        11.0303 
  57   0.0000       0.413968        11.2646 
  58   0.0000       0.414033        11.2664 
  59   0.0000       0.519921        14.1478 
  60   0.0000       0.571484        15.5509 
  61   0.0000       0.571545        15.5525 
  62   0.0000       0.777918        21.1682 
  63   0.0000       0.908682        24.7265 
  64   0.0000       1.181275        32.1441 
  65   0.0000       1.181280        32.1443 
  66   0.0000       1.236589        33.6493 
  67   0.0000       1.429097        38.8877 
  68   0.0000       1.429112        38.8881 
  69   0.0000       1.434983        39.0479 
  70   0.0000       1.434983        39.0479 
  71   0.0000       1.482174        40.3320 
  72   0.0000       1.497328        40.7444 
  73   0.0000       1.497329        40.7444 
  74   0.0000       1.506894        41.0047 
  75   0.0000       1.506956        41.0064 
  76   0.0000       1.509501        41.0756 
  77   0.0000       1.510481        41.1023 
  78   0.0000       1.512756        41.1642 
  79   0.0000       1.512789        41.1651 
  80   0.0000       1.573226        42.8097 
  81   0.0000       1.792088        48.7652 
  82   0.0000       1.792092        48.7653 
  83   0.0000       1.870254        50.8922 
  84   0.0000       1.870268        50.8926 
  85   0.0000       1.946040        52.9544 
  86   0.0000       2.094881        57.0046 
  87   0.0000       2.094896        57.0050 
  88   0.0000       2.105776        57.3011 
  89   0.0000       2.105783        57.3013 
  90   0.0000       2.133638        58.0593 
  91   0.0000       2.133744        58.0621 
  92   0.0000       2.244179        61.0672 
  93   0.0000       2.261352        61.5345 
  94   0.0000       2.261354        61.5346 
  95   0.0000       2.322440        63.1968 
  96   0.0000       2.331750        63.4502 
  97   0.0000       2.347291        63.8730 
  98   0.0000       2.350896        63.9711 
  99   0.0000       2.351292        63.9819 
 100   0.0000       2.513517        68.3963 
 101   0.0000       2.513820        68.4045 
 102   0.0000       2.883746        78.4707 
 103   0.0000       6.628436       180.3689 
 104   0.0000       6.628446       180.3692 
 105   0.0000       6.702047       182.3720 
 106   0.0000       6.802905       185.1165 
 107   0.0000       6.802921       185.1169 
 108   0.0000       6.821342       185.6182 
 109   0.0000       6.821381       185.6192 
 110   0.0000       6.943314       188.9372 
 111   0.0000       7.703799       209.6310 
 112   0.0000       7.715945       209.9615 
 113   0.0000       7.716636       209.9803 
 114   0.0000       7.723973       210.1800 
 115   0.0000       7.772388       211.4974 
 116   0.0000       7.773101       211.5168 
 117   0.0000       7.855117       213.7486 
 118   0.0000       8.024405       218.3552 
 119   0.0000      11.158084       303.6269 
 120   0.0000      11.158085       303.6269 
 121   0.0000      11.273091       306.7564 
 122   0.0000      12.468255       339.2785 
 123   0.0000      25.072009       682.2441 
 124   0.0000      43.286437      1177.8838 
 125   0.0000      43.286447      1177.8841 
 126   0.0000      43.375351      1180.3033 
 127   0.0000      73.814548      2008.5960 
 128   0.0000     265.732712      7230.9547 
 129   0.0000     624.707889     16999.1659 

                 SPIN DOWN ORBITALS
  NO   OCC          E(Eh)            E(eV) 
   0   1.0000    -105.158356     -2861.5043 
   1   1.0000     -17.807512      -484.5670 
   2   1.0000     -12.548340      -341.4577 
   3   1.0000     -12.548335      -341.4576 
   4   1.0000     -12.547112      -341.4243 
   5   1.0000     -10.881647      -296.1047 
   6   1.0000      -8.348419      -227.1720 
   7   1.0000      -8.347279      -227.1410 
   8   1.0000      -8.347278      -227.1410 
   9   1.0000      -6.845007      -186.2621 
  10   1.0000      -6.844968      -186.2610 
  11   1.0000      -6.842372      -186.1904 
  12   1.0000      -6.842265      -186.1875 
  13   1.0000      -6.840084      -186.1281 
  14   1.0000      -2.977769       -81.0292 
  15   1.0000      -1.888071       -51.3770 
  16   1.0000      -1.888069       -51.3770 
  17   1.0000      -1.876661       -51.0666 
  18   1.0000      -1.373036       -37.3622 
  19   1.0000      -1.335535       -36.3418 
  20   1.0000      -1.333416       -36.2841 
  21   1.0000      -1.333367       -36.2828 
  22   1.0000      -0.810198       -22.0466 
  23   1.0000      -0.772775       -21.0283 
  24   1.0000      -0.772769       -21.0281 
  25   0.0000      -0.444226       -12.0880 
  26   0.0000      -0.400331       -10.8936 
  27   0.0000      -0.400327       -10.8934 
  28   0.0000      -0.387595       -10.5470 
  29   0.0000      -0.387584       -10.5467 
  30   0.0000      -0.377704       -10.2778 
  31   0.0000      -0.306463        -8.3393 
  32   0.0000      -0.306455        -8.3391 
  33   0.0000      -0.214886        -5.8473 
  34   0.0000      -0.194969        -5.3054 
  35   0.0000      -0.135886        -3.6977 
  36   0.0000      -0.131144        -3.5686 
  37   0.0000      -0.131087        -3.5671 
  38   0.0000      -0.125063        -3.4031 
  39   0.0000      -0.069190        -1.8828 
  40   0.0000      -0.069188        -1.8827 
  41   0.0000      -0.028072        -0.7639 
  42   0.0000      -0.022514        -0.6126 
  43   0.0000      -0.022508        -0.6125 
  44   0.0000       0.006920         0.1883 
  45   0.0000       0.006935         0.1887 
  46   0.0000       0.022329         0.6076 
  47   0.0000       0.209350         5.6967 
  48   0.0000       0.252801         6.8791 
  49   0.0000       0.252806         6.8792 
  50   0.0000       0.274082         7.4581 
  51   0.0000       0.275046         7.4844 
  52   0.0000       0.325297         8.8518 
  53   0.0000       0.325531         8.8581 
  54   0.0000       0.384688        10.4679 
  55   0.0000       0.414063        11.2672 
  56   0.0000       0.453750        12.3472 
  57   0.0000       0.455536        12.3958 
  58   0.0000       0.457921        12.4607 
  59   0.0000       0.564294        15.3552 
  60   0.0000       0.592245        16.1158 
  61   0.0000       0.593963        16.1626 
  62   0.0000       0.805362        21.9150 
  63   0.0000       0.926275        25.2052 
  64   0.0000       1.214410        33.0458 
  65   0.0000       1.214410        33.0458 
  66   0.0000       1.268149        34.5081 
  67   0.0000       1.477601        40.2076 
  68   0.0000       1.477900        40.2157 
  69   0.0000       1.482972        40.3537 
  70   0.0000       1.483086        40.3568 
  71   0.0000       1.504742        40.9461 
  72   0.0000       1.504750        40.9463 
  73   0.0000       1.515857        41.2486 
  74   0.0000       1.517446        41.2918 
  75   0.0000       1.517547        41.2946 
  76   0.0000       1.520108        41.3642 
  77   0.0000       1.526294        41.5326 
  78   0.0000       1.526628        41.5417 
  79   0.0000       1.529376        41.6164 
  80   0.0000       1.587506        43.1982 
  81   0.0000       1.791256        48.7426 
  82   0.0000       1.791285        48.7433 
  83   0.0000       1.870303        50.8935 
  84   0.0000       1.870403        50.8962 
  85   0.0000       1.944223        52.9050 
  86   0.0000       2.094831        57.0032 
  87   0.0000       2.094935        57.0061 
  88   0.0000       2.103678        57.2440 
  89   0.0000       2.103719        57.2451 
  90   0.0000       2.147743        58.4431 
  91   0.0000       2.148533        58.4645 
  92   0.0000       2.245997        61.1167 
  93   0.0000       2.259091        61.4730 
  94   0.0000       2.259092        61.4730 
  95   0.0000       2.365565        64.3703 
  96   0.0000       2.439446        66.3807 
  97   0.0000       2.445304        66.5401 
  98   0.0000       2.448946        66.6392 
  99   0.0000       2.481582        67.5273 
 100   0.0000       2.586745        70.3889 
 101   0.0000       2.590058        70.4791 
 102   0.0000       2.943457        80.0955 
 103   0.0000       6.721569       182.9032 
 104   0.0000       6.721575       182.9033 
 105   0.0000       6.795700       184.9204 
 106   0.0000       6.916315       188.2025 
 107   0.0000       6.916317       188.2025 
 108   0.0000       6.934907       188.7084 
 109   0.0000       6.934909       188.7085 
 110   0.0000       7.056799       192.0253 
 111   0.0000       7.797670       212.1854 
 112   0.0000       7.822152       212.8516 
 113   0.0000       7.823908       212.8994 
 114   0.0000       7.921791       215.5629 
 115   0.0000       7.946138       216.2254 
 116   0.0000       7.947872       216.2726 
 117   0.0000       8.054412       219.1717 
 118   0.0000       8.119096       220.9318 
 119   0.0000      11.156562       303.5855 
 120   0.0000      11.156562       303.5855 
 121   0.0000      11.270757       306.6929 
 122   0.0000      12.474472       339.4476 
 123   0.0000      25.070459       682.2019 
 124   0.0000      43.399875      1180.9706 
 125   0.0000      43.399882      1180.9708 
 126   0.0000      43.489013      1183.3962 
 127   0.0000      73.933822      2011.8416 
 128   0.0000     265.772392      7232.0344 
 129   0.0000     624.719505     16999.4820 

                    ********************************
                    * MULLIKEN POPULATION ANALYSIS *
                    ********************************

--------------------------------------------
MULLIKEN ATOMIC CHARGES AND SPIN POPULATIONS
--------------------------------------------
   0 Ho:    2.226093    4.081902
   1 Cl:   -0.226093   -0.081902
Sum of atomic charges         :    2.0000000
Sum of atomic spin populations:    4.0000000

-----------------------------------------------------
MULLIKEN REDUCED ORBITAL CHARGES AND SPIN POPULATIONS
-----------------------------------------------------
CHARGE
  0 Hos       :     4.166401  s :     4.166401
      pz      :     4.046500  p :    12.120077
      px      :     4.048628
      py      :     4.024949
      dz2     :     2.097073  d :    10.462739
      dxz     :     2.167627
      dyz     :     2.058460
      dx2y2   :     2.075581
      dxy     :     2.063998
      f0      :     1.788738  f :    10.023144
      f+1     :     1.243846
      f-1     :     1.092077
      f+2     :     1.502042
      f-2     :     1.562778
      f+3     :     1.307172
      f-3     :     1.526492
      g0      :     0.000109  g :     0.001545
      g+1     :     0.000363
      g-1     :     0.000017
      g+2     :     0.000284
      g-2     :     0.000176
      g+3     :     0.000231
      g-3     :     0.000243
      g+4     :     0.000062
      g-4     :     0.000061
  1 Cls       :     5.968812  s :     5.968812
      pz      :     3.700025  p :    11.225113
      px      :     3.686334
      py      :     3.838754
      dz2     :     0.006651  d :     0.031188
      dxz     :     0.011065
      dyz     :     0.004008
      dx2y2   :     0.005079
      dxy     :     0.004385
      f0      :     0.000116  f :     0.000981
      f+1     :     0.000279
      f-1     :     0.000037
      f+2     :     0.000235
      f-2     :     0.000170
      f+3     :     0.000074
      f-3     :     0.000070

SPIN
  0 Hos       :     0.013130  s :     0.013130
      pz      :     0.002797  p :     0.007479
      px      :     0.002895
      py      :     0.001788
      dz2     :     0.012713  d :     0.063635
      dxz     :     0.024158
      dyz     :     0.007874
      dx2y2   :     0.010515
      dxy     :     0.008375
      f0      :     0.213873  f :     3.997650
      f+1     :     0.761953
      f-1     :     0.908727
      f+2     :     0.502458
      f-2     :     0.441182
      f+3     :     0.694370
      f-3     :     0.475086
      g0      :     0.000011  g :     0.000007
      g+1     :    -0.000011
      g-1     :     0.000000
      g+2     :     0.000003
      g-2     :     0.000006
      g+3     :     0.000002
      g-3     :    -0.000005
      g+4     :    -0.000001
      g-4     :     0.000002
  1 Cls       :    -0.001423  s :    -0.001423
      pz      :    -0.031620  p :    -0.082599
      px      :    -0.032982
      py      :    -0.017997
      dz2     :     0.000406  d :     0.002096
      dxz     :     0.000823
      dyz     :     0.000251
      dx2y2   :     0.000348
      dxy     :     0.000267
      f0      :     0.000002  f :     0.000025
      f+1     :     0.000007
      f-1     :     0.000001
      f+2     :     0.000007
      f-2     :     0.000004
      f+3     :     0.000002
      f-3     :     0.000001


                     *******************************
                     * LOEWDIN POPULATION ANALYSIS *
                     *******************************

-------------------------------------------
LOEWDIN ATOMIC CHARGES AND SPIN POPULATIONS
-------------------------------------------
   0 Ho:    2.037201    4.072168
   1 Cl:   -0.037201   -0.072168

----------------------------------------------------
LOEWDIN REDUCED ORBITAL CHARGES AND SPIN POPULATIONS
----------------------------------------------------
CHARGE
  0 Hos       :     4.161805  s :     4.161805
      pz      :     4.077355  p :    12.192018
      px      :     4.081744
      py      :     4.032919
      dz2     :     2.114492  d :    10.568084
      dxz     :     2.215861
      dyz     :     2.068902
      dx2y2   :     2.093421
      dxy     :     2.075407
      f0      :     1.790025  f :    10.037239
      f+1     :     1.248225
      f-1     :     1.092474
      f+2     :     1.506484
      f-2     :     1.564592
      f+3     :     1.308204
      f-3     :     1.527236
      g0      :     0.000344  g :     0.003652
      g+1     :     0.000683
      g-1     :     0.000028
      g+2     :     0.000845
      g-2     :     0.000375
      g+3     :     0.000609
      g-3     :     0.000512
      g+4     :     0.000131
      g-4     :     0.000126
  1 Cls       :     5.791626  s :     5.791626
      pz      :     3.705694  p :    11.212792
      px      :     3.695221
      py      :     3.811877
      dz2     :     0.005772  d :     0.031766
      dxz     :     0.013428
      dyz     :     0.003467
      dx2y2   :     0.005309
      dxy     :     0.003791
      f0      :     0.000108  f :     0.001018
      f+1     :     0.000302
      f-1     :     0.000034
      f+2     :     0.000281
      f-2     :     0.000155
      f+3     :     0.000075
      f-3     :     0.000063

SPIN
  0 Hos       :     0.010105  s :     0.010105
      pz      :     0.001827  p :     0.005332
      px      :     0.001843
      py      :     0.001662
      dz2     :     0.012458  d :     0.059975
      dxz     :     0.021725
      dyz     :     0.007730
      dx2y2   :     0.009848
      dxy     :     0.008214
      f0      :     0.213823  f :     3.996834
      f+1     :     0.761673
      f-1     :     0.908702
      f+2     :     0.502165
      f-2     :     0.441111
      f+3     :     0.694307
      f-3     :     0.475054
      g0      :    -0.000004  g :    -0.000079
      g+1     :    -0.000014
      g-1     :     0.000000
      g+2     :    -0.000028
      g-2     :     0.000000
      g+3     :    -0.000017
      g-3     :    -0.000012
      g+4     :    -0.000004
      g-4     :    -0.000001
  1 Cls       :    -0.000141  s :    -0.000141
      pz      :    -0.028064  p :    -0.074744
      px      :    -0.029119
      py      :    -0.017561
      dz2     :     0.000423  d :     0.002657
      dxz     :     0.001247
      dyz     :     0.000257
      dx2y2   :     0.000453
      dxy     :     0.000277
      f0      :     0.000005  f :     0.000060
      f+1     :     0.000019
      f-1     :     0.000002
      f+2     :     0.000019
      f-2     :     0.000008
      f+3     :     0.000004
      f-3     :     0.000003


                      *****************************
                      * MAYER POPULATION ANALYSIS *
                      *****************************

  NA   - Mulliken gross atomic population
  ZA   - Total nuclear charge
  QA   - Mulliken gross atomic charge
  VA   - Mayer's total valence
  BVA  - Mayer's bonded valence
  FA   - Mayer's free valence

  ATOM       NA         ZA         QA         VA         BVA        FA
  0 Ho    36.7739    39.0000     2.2261     5.2890     1.2782     4.0107
  1 Cl    17.2261    17.0000    -0.2261     1.2815     1.2782     0.0033

  Mayer bond orders larger than 0.100000
B(  0-Ho,  1-Cl) :   1.2782 

-------
TIMINGS
-------

Total SCF time: 0 days 1 hours 10 min 8 sec 

Total time                  ....    4208.512 sec
Sum of individual times     ....    3977.655 sec  ( 94.5%)

Fock matrix formation       ....    3973.136 sec  ( 94.4%)
Diagonalization             ....       0.065 sec  (  0.0%)
Density matrix formation    ....       0.249 sec  (  0.0%)
Population analysis         ....       0.002 sec  (  0.0%)
Initial guess               ....       2.700 sec  (  0.1%)
Orbital Transformation      ....       1.452 sec  (  0.0%)
Orbital Orthonormalization  ....       0.000 sec  (  0.0%)
DIIS solution               ....       0.016 sec  (  0.0%)

Maximum memory used throughout the entire SCF-calculation: 287.6 MB

-------------------------   --------------------
FINAL SINGLE POINT ENERGY     -1404.480858121645
-------------------------   --------------------


                            ***************************************
                            *     ORCA property calculations      *
                            ***************************************

                                    ---------------------
                                    Active property flags
                                    ---------------------
   (+) Dipole Moment


------------------------------------------------------------------------------
                       ORCA ELECTRIC PROPERTIES CALCULATION
------------------------------------------------------------------------------

Dipole Moment Calculation                       ... on
Quadrupole Moment Calculation                   ... off
Polarizability Calculation                      ... off
GBWName                                         ... 12.gbw
Electron density                                ... 12.scfp
The origin for moment calculation is the CENTER OF MASS  = (-0.260513, -3.160044 -6.337351)

-------------
DIPOLE MOMENT
-------------
                                X             Y             Z
Electronic contribution:    -28.61933      -5.08427     -27.34484
Nuclear contribution   :     26.06059       4.62972      24.90008
                        -----------------------------------------
Total Dipole Moment    :     -2.55874      -0.45455      -2.44477
                        -----------------------------------------
Magnitude (a.u.)       :      3.56800
Magnitude (Debye)      :      9.06914



--------------------
Rotational spectrum 
--------------------
 
Rotational constants in cm-1:     0.000000     0.078575     0.078575 
Rotational constants in MHz :     0.000000  2355.632331  2355.632331 

 Dipole components along the rotational axes: 
x,y,z [a.u.] :    -3.568000     0.000016    -0.000017 
x,y,z [Debye]:    -9.069136     0.000040    -0.000043 

 

Timings for individual modules:

Sum of individual times         ...     4208.881 sec (=  70.148 min)
GTO integral calculation        ...        0.364 sec (=   0.006 min)   0.0 %
SCF iterations                  ...     4208.517 sec (=  70.142 min) 100.0 %
                             ****ORCA TERMINATED NORMALLY****
TOTAL RUN TIME: 0 days 1 hours 10 minutes 8 seconds 969 msec
