
                                 *****************
                                 * O   R   C   A *
                                 *****************

                                            #,                                       
                                            ###                                      
                                            ####                                     
                                            #####                                    
                                            ######                                   
                                           ########,                                 
                                     ,,################,,,,,                         
                               ,,#################################,,                 
                          ,,##########################################,,             
                       ,#########################################, ''#####,          
                    ,#############################################,,   '####,        
                  ,##################################################,,,,####,       
                ,###########''''           ''''###############################       
              ,#####''   ,,,,##########,,,,          '''####'''          '####       
            ,##' ,,,,###########################,,,                        '##       
           ' ,,###''''                  '''############,,,                           
         ,,##''                                '''############,,,,        ,,,,,,###''
      ,#''                                            '''#######################'''  
     '                                                          ''''####''''         
             ,#######,   #######,   ,#######,      ##                                
            ,#'     '#,  ##    ##  ,#'     '#,    #''#        ######   ,####,        
            ##       ##  ##   ,#'  ##            #'  '#       #        #'  '#        
            ##       ##  #######   ##           ,######,      #####,   #    #        
            '#,     ,#'  ##    ##  '#,     ,#' ,#      #,         ##   #,  ,#        
             '#######'   ##     ##  '#######'  #'      '#     #####' # '####'        



                  #######################################################
                  #                        -***-                        #
                  #          Department of theory and spectroscopy      #
                  #    Directorship and core code : Frank Neese         #
                  #        Max Planck Institute fuer Kohlenforschung    #
                  #                Kaiser Wilhelm Platz 1               #
                  #                 D-45470 Muelheim/Ruhr               #
                  #                      Germany                        #
                  #                                                     #
                  #                  All rights reserved                #
                  #                        -***-                        #
                  #######################################################


                         Program Version 5.0.4 -  RELEASE  -


 With contributions from (in alphabetic order):
   Daniel Aravena         : Magnetic Suceptibility
   Michael Atanasov       : Ab Initio Ligand Field Theory (pilot matlab implementation)
   Alexander A. Auer      : GIAO ZORA, VPT2 properties, NMR spectrum
   Ute Becker             : Parallelization
   Giovanni Bistoni       : ED, misc. LED, open-shell LED, HFLD
   Martin Brehm           : Molecular dynamics
   Dmytro Bykov           : SCF Hessian
   Vijay G. Chilkuri      : MRCI spin determinant printing, contributions to CSF-ICE
   Dipayan Datta          : RHF DLPNO-CCSD density
   Achintya Kumar Dutta   : EOM-CC, STEOM-CC
   Dmitry Ganyushin       : Spin-Orbit,Spin-Spin,Magnetic field MRCI
   Miquel Garcia          : C-PCM and meta-GGA Hessian, CC/C-PCM, Gaussian charge scheme
   Yang Guo               : DLPNO-NEVPT2, F12-NEVPT2, CIM, IAO-localization
   Andreas Hansen         : Spin unrestricted coupled pair/coupled cluster methods
   Benjamin Helmich-Paris : MC-RPA, TRAH-SCF, COSX integrals
   Lee Huntington         : MR-EOM, pCC
   Robert Izsak           : Overlap fitted RIJCOSX, COSX-SCS-MP3, EOM
   Marcus Kettner         : VPT2
   Christian Kollmar      : KDIIS, OOCD, Brueckner-CCSD(T), CCSD density, CASPT2, CASPT2-K
   Simone Kossmann        : Meta GGA functionals, TD-DFT gradient, OOMP2, MP2 Hessian
   Martin Krupicka        : Initial AUTO-CI
   Lucas Lang             : DCDCAS
   Marvin Lechner         : AUTO-CI (C++ implementation), FIC-MRCC
   Dagmar Lenk            : GEPOL surface, SMD
   Dimitrios Liakos       : Extrapolation schemes; Compound Job, initial MDCI parallelization
   Dimitrios Manganas     : Further ROCIS development; embedding schemes
   Dimitrios Pantazis     : SARC Basis sets
   Anastasios Papadopoulos: AUTO-CI, single reference methods and gradients
   Taras Petrenko         : DFT Hessian,TD-DFT gradient, ASA, ECA, R-Raman, ABS, FL, XAS/XES, NRVS
   Peter Pinski           : DLPNO-MP2, DLPNO-MP2 Gradient
   Christoph Reimann      : Effective Core Potentials
   Marius Retegan         : Local ZFS, SOC
   Christoph Riplinger    : Optimizer, TS searches, QM/MM, DLPNO-CCSD(T), (RO)-DLPNO pert. Triples
   Tobias Risthaus        : Range-separated hybrids, TD-DFT gradient, RPA, STAB
   Michael Roemelt        : Original ROCIS implementation
   Masaaki Saitow         : Open-shell DLPNO-CCSD energy and density
   Barbara Sandhoefer     : DKH picture change effects
   Avijit Sen             : IP-ROCIS
   Kantharuban Sivalingam : CASSCF convergence, NEVPT2, FIC-MRCI
   Bernardo de Souza      : ESD, SOC TD-DFT
   Georgi Stoychev        : AutoAux, RI-MP2 NMR, DLPNO-MP2 response
   Willem Van den Heuvel  : Paramagnetic NMR
   Boris Wezisla          : Elementary symmetry handling
   Frank Wennmohs         : Technical directorship


 We gratefully acknowledge several colleagues who have allowed us to
 interface, adapt or use parts of their codes:
   Stefan Grimme, W. Hujo, H. Kruse, P. Pracht,  : VdW corrections, initial TS optimization,
                  C. Bannwarth, S. Ehlert          DFT functionals, gCP, sTDA/sTD-DF
   Ed Valeev, F. Pavosevic, A. Kumar             : LibInt (2-el integral package), F12 methods
   Garnet Chan, S. Sharma, J. Yang, R. Olivares  : DMRG
   Ulf Ekstrom                                   : XCFun DFT Library
   Mihaly Kallay                                 : mrcc  (arbitrary order and MRCC methods)
   Jiri Pittner, Ondrej Demel                    : Mk-CCSD
   Frank Weinhold                                : gennbo (NPA and NBO analysis)
   Christopher J. Cramer and Donald G. Truhlar   : smd solvation model
   Lars Goerigk                                  : TD-DFT with DH, B97 family of functionals
   V. Asgeirsson, H. Jonsson                     : NEB implementation
   FAccTs GmbH                                   : IRC, NEB, NEB-TS, DLPNO-Multilevel, CI-OPT
                                                   MM, QMMM, 2- and 3-layer-ONIOM, Crystal-QMMM,
                                                   LR-CPCM, SF, NACMEs, symmetry and pop. for TD-DFT,
                                                   nearIR, NL-DFT gradient (VV10), updates on ESD,
                                                   ML-optimized integration grids
   S Lehtola, MJT Oliveira, MAL Marques          : LibXC Library
   Liviu Ungur et al                             : ANISO software


 Your calculation uses the libint2 library for the computation of 2-el integrals
 For citations please refer to: http://libint.valeyev.net

 Your ORCA version has been built with support for libXC version: 5.1.0
 For citations please refer to: https://tddft.org/programs/libxc/

 This ORCA versions uses:
   CBLAS   interface :  Fast vector & matrix operations
   LAPACKE interface :  Fast linear algebra routines
   SCALAPACK package :  Parallel linear algebra routines
   Shared memory     :  Shared parallel matrices
   BLAS/LAPACK       :  OpenBLAS 0.3.15  USE64BITINT DYNAMIC_ARCH NO_AFFINITY Haswell SINGLE_THREADED
        Core in use  :  Haswell
   Copyright (c) 2011-2014, The OpenBLAS Project


================================================================================

----- Orbital basis set information -----
Your calculation utilizes the basis: def2-SVP
   F. Weigend and R. Ahlrichs, Phys. Chem. Chem. Phys. 7, 3297 (2005).

The basis set includes element-specific modifications.

----- AuxJ basis set information -----
Your calculation utilizes the auxiliary basis: def2/J
   F. Weigend, Phys. Chem. Chem. Phys. 8, 1057 (2006).

The basis set includes element-specific modifications.

================================================================================
                                        WARNINGS
                       Please study these warnings very carefully!
================================================================================


INFO   : the flag for use of the SHARK integral package has been found!


WARNING: TRAH-SCF with ROHF wave function is not implemented yet
  ===> : Turning TRAH off

================================================================================
                                       INPUT FILE
================================================================================
NAME = hf_atom67.inp
|  1> # input to generate an atomic fitting density for Ho
|  2> # this file is used internally by ORCA
|  3> #
|  4> # atomic ground state (S=4): 1s2 2s2 2p6 3s2 3p6 4s2 3d10 4p6 5s2 4d10 5p6 6s2 4f11 
|  5> #
|  6> ! RHF AllowRHF def2-SVP def2/J  NoMulliken NoLoewdin NoMayer NoPrintMOs 
|  7> 
|  8> %output print[p_atomdensfit] 2 end
|  9> 
| 10> %scf
| 11>   guess hcore
| 12>   maxiter 1000
| 13>   maxdisk 500000
| 14>   SCFMode Conventional
| 15>   hftyp rohf
| 16>   rohf_case sahf
| 17>   rohf_numop   3
| 18>   rohf_norb[1] 1,7
| 19>   rohf_nel[1]  2,11
| 20> end
| 21> 
| 22> %basis
| 23>   NewECP 67
| 24>     N_core 28
| 25>     lmax h
| 26>     s 1
| 27>       1      28.3972570000    755.7031360000  2
| 28>     p 1
| 29>       1      17.4386330000    253.5519980000  2
| 30>     d 1
| 31>       1      12.4342120000     89.6356770000  2
| 32>     f 1
| 33>       1      25.3870100000    -55.4820360000  2
| 34>     g 1
| 35>       1      25.1885010000    -30.9911250000  2
| 36>     h 1
| 37>       1       1.0000000000      0.0000000000  2
| 38>   end
| 39>   NewGTO 67
| 40>     s 5 
| 41>      1   86373.9550000000      0.0034641822
| 42>      2   13014.2000000000      0.0261146046
| 43>      3    2974.2417000000      0.1243996728
| 44>      4     840.7710000000      0.3714669273
| 45>      5     258.1223000000      0.5959725845
| 46>     s 1 
| 47>      1      49.7648000000      1.0000000000
| 48>     s 1 
| 49>      1      35.5463000000      1.0000000000
| 50>     s 1 
| 51>      1      18.1290000000      1.0000000000
| 52>     s 1 
| 53>      1       4.4456000000      1.0000000000
| 54>     s 1 
| 55>      1       2.2170000000      1.0000000000
| 56>     s 1 
| 57>      1       0.8329000000      1.0000000000
| 58>     s 1 
| 59>      1       0.3544000000      1.0000000000
| 60>     s 1 
| 61>      1       0.0597000000      1.0000000000
| 62>     s 1 
| 63>      1       0.0244000000      1.0000000000
| 64>     p 6 
| 65>      1    1332.9863082000     -0.0031009699
| 66>      2     314.4068793100     -0.0210512867
| 67>      3      97.9117194350     -0.0628507444
| 68>      4      27.9099616030     -0.3002118380
| 69>      5      16.5450973110      1.0608710803
| 70>      6       3.9331568107     -1.2610096744
| 71>     p 3 
| 72>      1      11.7341126790     -0.2679606608
| 73>      2       5.7259586736     -0.4750307971
| 74>      3       2.1474251528     -0.3680662209
| 75>     p 1 
| 76>      1       1.9836134634      1.0000000000
| 77>     p 1 
| 78>      1       0.8459926388      1.0000000000
| 79>     p 1 
| 80>      1       0.3590466282      1.0000000000
| 81>     p 1 
| 82>      1       0.1278058205      1.0000000000
| 83>     p 1 
| 84>      1       0.0386239785      1.0000000000
| 85>     d 6 
| 86>      1     454.4404000000      0.0013880511
| 87>      2     137.4123000000      0.0114093894
| 88>      3      52.6936000000      0.0467844919
| 89>      4      22.6037000000      0.1001586426
| 90>      5       8.7808000000      0.3809294574
| 91>      6       4.3752000000      0.5957437311
| 92>     d 1 
| 93>      1       2.1022000000      1.0000000000
| 94>     d 1 
| 95>      1       0.9073000000      1.0000000000
| 96>     d 1 
| 97>      1       0.3172000000      1.0000000000
| 98>     d 1 
| 99>      1       0.0975000000      1.0000000000
|100>     f 5 
|101>      1     136.4678000000      0.0074743782
|102>      2      49.5692000000      0.0692401818
|103>      3      22.2471000000      0.2232423851
|104>      4      10.1359000000      0.4035649755
|105>      5       4.6186000000      0.5057438703
|106>     f 1 
|107>      1       2.0375000000      1.0000000000
|108>     f 1 
|109>      1       0.8343000000      1.0000000000
|110>     f 1 
|111>      1       0.2979000000      1.0000000000
|112>   end
|113>   NewAuxGTO 67
|114>     S 1
|115>      1 1310.72 1.0
|116>     S 1
|117>      1  655.36 1.0
|118>     S 1
|119>      1  327.68 1.0
|120>     S 1
|121>      1  163.84 1.0
|122>     S 1
|123>      1   81.82 1.0
|124>     S 1
|125>      1   40.96 1.0
|126>     S 1
|127>      1   20.48 1.0
|128>     S 1
|129>      1   10.24 1.0
|130>     S 1
|131>      1    5.12 1.0
|132>     S 1
|133>      1    2.56 1.0
|134>     S 1
|135>      1    1.28 1.0
|136>     S 1
|137>      1    0.64 1.0
|138>     S 1
|139>      1    0.32 1.0
|140>     S 1
|141>      1    0.16 1.0
|142>     S 1
|143>      1    0.08 1.0
|144>     S 1
|145>      1    0.04 1.0
|146>     S 1
|147>      1    0.02 1.0
|148>     S 1
|149>      1    0.01 1.0
|150>   end
|151> end
|152> 
|153> * xyz 0 4
|154> 67  0.0 0.0 0.0
|155> *
|156> 
|157> 
|158>                          ****END OF INPUT****
================================================================================

                       ****************************
                       * Single Point Calculation *
                       ****************************

---------------------------------
CARTESIAN COORDINATES (ANGSTROEM)
---------------------------------
  Ho     0.000000    0.000000    0.000000

----------------------------
CARTESIAN COORDINATES (A.U.)
----------------------------
  NO LB      ZA    FRAG     MASS         X           Y           Z
   0 Ho   39.0000*   0   164.930    0.000000    0.000000    0.000000
* core charge reduced due to ECP

--------------------------------
INTERNAL COORDINATES (ANGSTROEM)
--------------------------------
 Ho     0   0   0     0.000000000000     0.00000000     0.00000000

---------------------------
INTERNAL COORDINATES (A.U.)
---------------------------
 Ho     0   0   0     0.000000000000     0.00000000     0.00000000

---------------------
BASIS SET INFORMATION
---------------------
There are 1 groups of distinct atoms

 Group   1 Type Ho  : 14s14p10d8f contracted to 10s7p5d4f pattern {5111111111/6311111/61111/5111}

Atom   0Ho   basis set group =>   1
---------------------------------
AUXILIARY/J BASIS SET INFORMATION
---------------------------------
There are 1 groups of distinct atoms

 Group   1 Type Ho  : 18s contracted to 18s pattern {111111111111111111}

Atom   0Ho   basis set group =>   1
-------------------------
ECP PARAMETER INFORMATION
-------------------------

 Group 1, Type Ho ECP (replacing 28 core electrons, lmax=5)

Atom   0Ho   ECP group =>   1

------------------------------------------------------------------------------
                           ORCA GTO INTEGRAL CALCULATION
------------------------------------------------------------------------------
------------------------------------------------------------------------------
                   ___                                                        
                  /   \      - P O W E R E D   B Y -                         
                 /     \                                                     
                 |  |  |   _    _      __       _____    __    __             
                 |  |  |  | |  | |    /  \     |  _  \  |  |  /  |          
                  \  \/   | |  | |   /    \    | | | |  |  | /  /          
                 / \  \   | |__| |  /  /\  \   | |_| |  |  |/  /          
                |  |  |   |  __  | /  /__\  \  |    /   |      \           
                |  |  |   | |  | | |   __   |  |    \   |  |\   \          
                \     /   | |  | | |  |  |  |  | |\  \  |  | \   \       
                 \___/    |_|  |_| |__|  |__|  |_| \__\ |__|  \__/        
                                                                              
                      - O R C A' S   B I G   F R I E N D -                    
                                      &                                       
                       - I N T E G R A L  F E E D E R -                       
                                                                              
 v1 FN, 2020, v2 2021                                                         
------------------------------------------------------------------------------


Reading SHARK input file hf_atom67.SHARKINP.tmp ... ok
----------------------
SHARK INTEGRAL PACKAGE
----------------------

Number of atoms                             ...      1
Number of basis functions                   ...     84
Number of shells                            ...     26
Maximum angular momentum                    ...      3
Integral batch strategy                     ... SHARK/LIBINT Hybrid
RI-J (if used) integral strategy            ... SPLIT-RIJ (Revised 2003 algorithm where possible)
Printlevel                                  ...      1
Contraction scheme used                     ... SEGMENTED contraction
Coulomb Range Separation                    ... NOT USED
Exchange Range Separation                   ... NOT USED
Finite Nucleus Model                        ... NOT USED
Auxiliary Coulomb fitting basis             ... AVAILABLE
   # of basis functions in Aux-J            ...     18
   # of shells in Aux-J                     ...     18
   Maximum angular momentum in Aux-J        ...      0
Auxiliary J/K fitting basis                 ... NOT available
Auxiliary Correlation fitting basis         ... NOT available
Auxiliary 'external' fitting basis          ... NOT available
Integral threshold                          ...     1.000000e-10
Primitive cut-off                           ...     1.000000e-11
Primitive pair pre-selection threshold      ...     1.000000e-11

Calculating pre-screening integrals         ... done (  0.1 sec) Dimension = 26
Organizing shell pair data                  ... done (  0.2 sec)
Shell pair information
Total number of shell pairs                 ...       351
Shell pairs after pre-screening             ...       351
Total number of primitive shell pairs       ...      1134
Primitive shell pairs kept                  ...      1134
          la=0 lb=0:     55 shell pairs
          la=1 lb=0:     70 shell pairs
          la=1 lb=1:     28 shell pairs
          la=2 lb=0:     50 shell pairs
          la=2 lb=1:     35 shell pairs
          la=2 lb=2:     15 shell pairs
          la=3 lb=0:     40 shell pairs
          la=3 lb=1:     28 shell pairs
          la=3 lb=2:     20 shell pairs
          la=3 lb=3:     10 shell pairs

Calculating one electron integrals          ... done (  0.0 sec)
Calculating ECP integrals                   ... done (  0.1 sec)
Calculating RI/J V-Matrix + Cholesky decomp.... done (  0.0 sec)
Calculating Nuclear repulsion               ... done (  0.0 sec) ENN=      0.000000000000 Eh
Calculating 4-index integrals               ... 
    -> SHARK/Ints2Disk: Thresh =     1.000000e-10 TCut=    1.000000e-11 
    -> calling libint FockFlag=2 Lmax_loc=3
    -> L=0 0 1 3:     0.002 sec done=      1540 (=100.0%) skipped=         0 
    -> L=0 1 0 3:     0.003 sec done=      2800 (=100.0%) skipped=         0 
    -> L=0 1 1 3:     0.006 sec done=      1960 (=100.0%) skipped=         0 
    -> L=0 1 2 2:     0.004 sec done=      1050 (=100.0%) skipped=         0 
    -> L=0 1 3 3:     0.006 sec done=       700 (=100.0%) skipped=         0 
    -> L=0 2 0 3:     0.005 sec done=      1999 (=100.0%) skipped=         0 
    -> L=0 2 1 3:     0.009 sec done=      1400 (=100.0%) skipped=         0 
    -> L=0 2 2 2:     0.006 sec done=       750 (=100.0%) skipped=         0 
    -> L=0 3 0 3:     0.004 sec done=       818 (=100.0%) skipped=         0 
    -> L=0 3 1 1:     0.006 sec done=      1120 (=100.0%) skipped=         0 
    -> L=0 3 1 2:     0.012 sec done=      1400 (=100.0%) skipped=         0 
    -> L=0 3 1 3:     0.015 sec done=      1120 (=100.0%) skipped=         0 
    -> L=0 3 2 2:     0.010 sec done=       600 (=100.0%) skipped=         0 
    -> L=1 1 1 2:     0.006 sec done=       980 (=100.0%) skipped=         0 
    -> L=1 1 1 3:     0.008 sec done=       784 (=100.0%) skipped=         0 
    -> L=1 1 2 2:     0.006 sec done=       420 (=100.0%) skipped=         0 
    -> L=1 2 1 2:     0.009 sec done=       630 (=100.0%) skipped=         0 
    -> L=1 2 1 3:     0.019 sec done=       980 (=100.0%) skipped=         0 
    -> L=1 2 2 2:     0.014 sec done=       525 (=100.0%) skipped=         0 
    -> L=1 3 1 3:     0.017 sec done=       406 (=100.0%) skipped=         0 
    -> L=1 3 2 2:     0.021 sec done=       420 (=100.0%) skipped=         0 
    -> L=2 2 2 2:     0.009 sec done=       120 (=100.0%) skipped=         0 
    ->Total LIBINT loop time =    0.197 sec
    -> L=0 0 0 0:     0.000 sec done=      1540 (=100.0%) skipped=         0 
    -> L=1 0 0 0:     0.001 sec done=      3850 (=100.0%) skipped=         0 
    -> L=1 0 1 0:     0.001 sec done=      2485 (=100.0%) skipped=         0 
    -> L=1 1 0 0:     0.001 sec done=      1540 (=100.0%) skipped=         0 
    -> L=1 1 1 0:     0.002 sec done=      1960 (=100.0%) skipped=         0 
    -> L=1 1 1 1:     0.002 sec done=       406 (=100.0%) skipped=         0 
    -> L=2 0 0 0:     0.001 sec done=      2750 (=100.0%) skipped=         0 
    -> L=2 0 1 0:     0.003 sec done=      3500 (=100.0%) skipped=         0 
    -> L=2 0 1 1:     0.004 sec done=      1400 (=100.0%) skipped=         0 
    -> L=2 0 2 0:     0.002 sec done=      1274 (=100.0%) skipped=         0 
    -> L=2 1 0 0:     0.002 sec done=      1925 (=100.0%) skipped=         0 
    -> L=2 1 1 0:     0.005 sec done=      2450 (=100.0%) skipped=         0 
    -> L=2 1 2 0:     0.009 sec done=      1750 (=100.0%) skipped=         0 
    -> L=2 2 0 0:     0.002 sec done=       825 (=100.0%) skipped=         0 
    -> L=3 0 0 0:     0.001 sec done=      2200 (=100.0%) skipped=         0 
    -> L=3 2 0 0:     0.008 sec done=      1100 (=100.0%) skipped=         0 
    -> L=3 2 1 0:     0.017 sec done=      1400 (=100.0%) skipped=         0 
    -> L=3 2 1 1:     0.016 sec done=       560 (=100.0%) skipped=         0 
    -> L=3 2 2 0:     0.018 sec done=      1000 (=100.0%) skipped=         0 
    -> L=3 2 2 1:     0.046 sec done=       700 (=100.0%) skipped=         0 
    -> L=3 2 2 2:     0.055 sec done=       300 (=100.0%) skipped=         0 
    -> L=3 2 3 0:     0.029 sec done=       800 (=100.0%) skipped=         0 
    -> L=3 2 3 1:     0.082 sec done=       560 (=100.0%) skipped=         0 
    -> L=3 2 3 2:     0.041 sec done=       210 (=100.0%) skipped=         0 
    -> L=3 3 0 0:     0.011 sec done=       550 (=100.0%) skipped=         0 
    -> L=3 3 1 1:     0.015 sec done=       280 (=100.0%) skipped=         0 
    -> L=3 3 2 0:     0.019 sec done=       500 (=100.0%) skipped=         0 
    -> L=3 3 2 1:     0.041 sec done=       350 (=100.0%) skipped=         0 
    -> L=3 3 2 2:     0.051 sec done=       150 (=100.0%) skipped=         0 
    -> L=3 3 3 0:     0.033 sec done=       400 (=100.0%) skipped=         0 
    -> L=3 3 3 1:     0.074 sec done=       280 (=100.0%) skipped=         0 
    -> L=3 3 3 2:     0.070 sec done=       200 (=100.0%) skipped=         0 
    -> L=3 3 3 3:     0.042 sec done=        55 (=100.0%) skipped=         0 
    ->Total SHARK integral loop time =    0.702 sec
    -> Total Integral generation matrix time =    0.906 sec
    -> Number of small integrals   =      4265
    -> Number of medium integrals  =     16779
    -> Number of large integrals   =    626652
    -> Number of MB stored         =         7 MB


SHARK setup successfully completed in   1.4 seconds

Maximum memory used throughout the entire GTOINT-calculation: 63.2 MB
-------------------------------------------------------------------------------
                                 ORCA SCF
-------------------------------------------------------------------------------

------------
SCF SETTINGS
------------
Hamiltonian:
 Ab initio Hamiltonian  Method          .... Hartree-Fock(GTOs)


General Settings:
 Integral files         IntName         .... hf_atom67
 Hartree-Fock type      HFTyp           .... ROHF
 Total Charge           Charge          ....    0
 Multiplicity           Mult            ....    4
 Number of Electrons    NEL             ....   39
 Basis Dimension        Dim             ....   84
 Nuclear Repulsion      ENuc            ....      0.0000000000 Eh

Convergence Acceleration:
 DIIS                   CNVDIIS         .... on
   Start iteration      DIISMaxIt       ....    12
   Startup error        DIISStart       ....  0.200000
   # of expansion vecs  DIISMaxEq       ....     5
   Bias factor          DIISBfac        ....   1.050
   Max. coefficient     DIISMaxC        ....  10.000
 Trust-Rad. Augm. Hess. CNVTRAH         .... off
 SOSCF                  CNVSOSCF        .... off
 Level Shifting         CNVShift        .... on
   Level shift para.    LevelShift      ....    0.2500
   Turn off err/grad.   ShiftErr        ....    0.0010
 Zerner damping         CNVZerner       .... off
 Static damping         CNVDamp         .... on
   Fraction old density DampFac         ....    0.7000
   Max. Damping (<1)    DampMax         ....    0.9800
   Min. Damping (>=0)   DampMin         ....    0.0000
   Turn off err/grad.   DampErr         ....    0.1000
 Fernandez-Rico         CNVRico         .... off

SCF Procedure:
 Maximum # iterations   MaxIter         ....  1000
 SCF integral mode      SCFMode         .... Conventional
 Integral Threshold     Thresh          ....  1.000e-10 Eh
 Primitive CutOff       TCut            ....  1.000e-11 Eh
 Integral Buffer length BufferLength    .... 1048576
 Integral index format  IndFormat       ....     0
 Integral value format  ValFormat       ....     0
 Integral Storage       Thresh          ....  1.000e-10 Eh

Convergence Tolerance:
 Convergence Check Mode ConvCheckMode   .... Total+1el-Energy
 Convergence forced     ConvForced      .... 0
 Energy Change          TolE            ....  1.000e-06 Eh
 1-El. energy change                    ....  1.000e-03 Eh
 DIIS Error             TolErr          ....  1.000e-06


Diagonalization of the overlap matrix:
Smallest eigenvalue                        ... 1.198e-03
Time for diagonalization                   ...    0.001 sec
Threshold for overlap eigenvalues          ... 1.000e-08
Number of eigenvalues below threshold      ... 0
Time for construction of square roots      ...    0.000 sec
Total time needed                          ...    0.001 sec

--------------------
INITIAL GUESS: HCORE
--------------------
AVERAGE-CONFIGURATION (SAHF) CASE FOUND

-------------------
FINAL ROHF SETTINGS
-------------------
Number of operators             ... 3
  operator   0:  13 orbitals  26 electrons n(mue)= 2.000
  operator   1:   1 orbitals   2 electrons n(mue)= 2.000
  operator   2:   7 orbitals  11 electrons n(mue)= 1.571
Vector coupling coefficients a and b (Zerner convention):
   1.000    1.000    1.000           1.000    1.000    1.000 
   1.000    1.000    1.000           1.000    1.000    1.000 
   1.000    1.000    0.983           1.000    1.000    1.041 

                      -----------------
                      INTIAL GUESS DONE 
                      -----------------

 InCore treatment chosen:
   Memory dedicated               ...    1024 MB
   Memory needed                  ...      7 MB
   Number of tiny    integrals    ...    4265
   Number of small   integrals    ...   16779
   Number of regular integrals    ...  626652

--------------
SCF ITERATIONS
--------------
ITER       Energy         Delta-E        Max-DP      RMS-DP      [F,P]     Damp
  0   -723.3225771242   0.000000000000 3.93653803  0.06840844 10.8680429 0.7000
  1   -811.5546962638 -88.232119139540 2.77959284  0.04210461  3.4995727 0.7000
  2   -898.8973936397 -87.342697375941 1.94572419  0.02866830  1.9836020 0.7000
  3   -914.9078716570 -16.010478017241 1.36200680  0.01999492  0.4077903 0.7000
                            ****Activating DIIS****
  4   -923.6080528637  -8.700181206716 0.95340426  0.01391445  0.1510270 0.7000
  5   -929.8156186274  -6.207565763712 0.66738024  0.00983112  0.1314229 0.7000
  6   -934.3476918166  -4.532073189235 1.55721655  0.02276424  0.0624503 0.0000
  7   -944.6899968941 -10.342305077486 0.03391927  0.00052045  0.1766038 0.7000
  8   -944.8146078877  -0.124610993538 0.03364871  0.00053276  0.1061947 0.7000
  9   -944.8606881896  -0.046080301980 0.12792421  0.00209680  0.0843783 0.0000
 10   -944.9530831287  -0.092394939083 0.04621273  0.00080014  0.0538908 0.0000
 11   -944.9183171786   0.034765950094 0.09691853  0.00172463  0.0789888 0.0000
 12   -944.9739083474  -0.055591168782 0.01437724  0.00031157  0.0246611 0.0000
 13   -944.9777963984  -0.003888051033 0.02503902  0.00039887  0.0181273 0.0000
 14   -944.9818423590  -0.004045960524 0.03575091  0.00042773  0.0114728 0.0000
 15   -944.9864860995  -0.004643740583 0.00659151  0.00008079  0.0171852 0.0000
 16   -944.9855286041   0.000957495468 0.00183119  0.00002515  0.0161578 0.0000
 17   -944.9858151613  -0.000286557209 0.00427883  0.00005116  0.0164674 0.0000
 18   -944.9852320030   0.000583158257 0.00400882  0.00004734  0.0157941 0.0000
 19   -944.9847117701   0.000520232978 0.02438854  0.00029536  0.0151705 0.0000
 20   -944.9882786091  -0.003566839051 0.01210254  0.00015173  0.0190500 0.0000
 21   -944.9863897278   0.001888881347 0.02280955  0.00027264  0.0170574 0.0000
 22   -944.9835682119   0.002821515846 0.04783487  0.00053839  0.0133931 0.0000
 23   -944.9800591345   0.003509077454 0.03055610  0.00033446  0.0080676 0.0000
 24   -944.9794255156   0.000633618874 0.01249203  0.00014143  0.0069170 0.0000
 25   -944.9794965987  -0.000071083121 0.01141135  0.00012921  0.0051483 0.0000
 26   -944.9796215595  -0.000124960802 0.00497067  0.00009189  0.0031149 0.0000
 27   -944.9795803678   0.000041191704 0.00288126  0.00003823  0.0011003 0.0000
 28   -944.9795888887  -0.000008520876 0.00233372  0.00003200  0.0006675 0.0000
 29   -944.9796003108  -0.000011422151 0.00184336  0.00002554  0.0006664 0.0000
 30   -944.9796043486  -0.000004037721 0.00098867  0.00001427  0.0006634 0.0000
 31   -944.9796087724  -0.000004423837 0.00160234  0.00002374  0.0006613 0.0000
 32   -944.9796150823  -0.000006309929 0.00095969  0.00001397  0.0006575 0.0000
 33   -944.9796191075  -0.000004025224 0.00019373  0.00000344  0.0006552 0.0000
 34   -944.9796206024  -0.000001494861 0.00100559  0.00001554  0.0006552 0.0000
 35   -944.9796168934   0.000003709030 0.00078387  0.00001106  0.0006576 0.0000
 36   -944.9796206683  -0.000003774922 0.00060590  0.00000967  0.0006558 0.0000
 37   -944.9796227240  -0.000002055709 0.00063085  0.00000895  0.0006543 0.0000
 38   -944.9796271969  -0.000004472901 0.00112072  0.00001560  0.0006529 0.0000
 39   -944.9796208929   0.000006304032 0.00029326  0.00000389  0.0006555 0.0000
 40   -944.9796205347   0.000000358201 0.00056884  0.00000778  0.0006561 0.0000
 41   -944.9796238494  -0.000003314691 0.00039362  0.00000540  0.0006548 0.0000
 42   -944.9796263859  -0.000002536504 0.00031219  0.00000509  0.0006540 0.0000
 43   -944.9796294832  -0.000003097315 0.00060334  0.00001041  0.0006533 0.0000
 44   -944.9796233770   0.000006106185 0.00023430  0.00000274  0.0006546 0.0000
 45   -944.9796222994   0.000001077591 0.00062184  0.00000873  0.0006547 0.0000
 46   -944.9796233766  -0.000001077186 0.00096758  0.00001118  0.0006536 0.0000
                 **** Energy Check signals convergence ****

               *****************************************************
               *                     SUCCESS                       *
               *           SCF CONVERGED AFTER  47 CYCLES          *
               *****************************************************


----------------
TOTAL SCF ENERGY
----------------

Total Energy       :         -944.97962330 Eh          -25714.20283 eV

Components:
Nuclear Repulsion  :            0.00000000 Eh               0.00000 eV
Electronic Energy  :         -944.97962330 Eh          -25714.20283 eV
One Electron Energy:        -1715.08249861 Eh          -46669.76743 eV
Two Electron Energy:          770.10287531 Eh           20955.56460 eV

Virial components:
Potential Energy   :        -1494.00327441 Eh          -40653.89590 eV
Kinetic Energy     :          549.02365111 Eh           14939.69307 eV
Virial Ratio       :            2.72120021


---------------
SCF CONVERGENCE
---------------

  Last Energy change         ...    7.8715e-08  Tolerance :   1.0000e-06
  Last MAX-Density change    ...    1.4005e-03  Tolerance :   1.0000e-05
  Last RMS-Density change    ...    1.6084e-05  Tolerance :   1.0000e-06
  Last DIIS Error            ...    6.5268e-04  Tolerance :   1.0000e-06

             **** THE GBW FILE WAS UPDATED (hf_atom67.gbw) ****
             **** DENSITY hf_atom67.scfp WAS UPDATED ****
             **** ENERGY FILE WAS UPDATED (hf_atom67.en.tmp) ****
             **** THE GBW FILE WAS UPDATED (hf_atom67.gbw) ****
             **** DENSITY hf_atom67.scfp WAS UPDATED ****
----------------
ORBITAL ENERGIES
----------------

  NO   OCC          E(Eh)            E(eV) 
   0   2.0000     -16.793074      -456.9628 
   1   2.0000     -11.578147      -315.0574 
   2   2.0000     -11.557515      -314.4960 
   3   2.0000     -11.546342      -314.1919 
   4   2.0000      -5.936635      -161.5441 
   5   2.0000      -5.934883      -161.4964 
   6   2.0000      -5.933645      -161.4627 
   7   2.0000      -5.928904      -161.3337 
   8   2.0000      -5.928225      -161.3152 
   9   2.0000      -2.012359       -54.7591 
  10   2.0000      -0.981927       -26.7196 
  11   2.0000      -0.979390       -26.6506 
  12   2.0000      -0.966344       -26.2956 
  13   2.0000      -0.226147        -6.1538 
  14   1.5714      -0.249423        -6.7871 
  15   1.5714      -0.249258        -6.7826 
  16   1.5714      -0.241266        -6.5652 
  17   1.5714      -0.235086        -6.3970 
  18   1.5714      -0.234005        -6.3676 
  19   1.5714      -0.210869        -5.7380 
  20   1.5714      -0.024057        -0.6546 
  21   0.0000      -0.011872        -0.3231 
  22   0.0000       0.044515         1.2113 
  23   0.0000       0.051861         1.4112 
  24   0.0000       0.052738         1.4351 
  25   0.0000       0.134088         3.6487 
  26   0.0000       0.160791         4.3753 
  27   0.0000       0.163666         4.4536 
  28   0.0000       0.166304         4.5254 
  29   0.0000       0.184009         5.0071 
  30   0.0000       0.385868        10.5000 
  31   0.0000       0.398228        10.8363 
  32   0.0000       0.402698        10.9580 
  33   0.0000       0.522783        14.2257 
  34   0.0000       0.530556        14.4372 
  35   0.0000       0.533746        14.5240 
  36   0.0000       0.538461        14.6523 
  37   0.0000       0.551684        15.0121 
  38   0.0000       1.002163        27.2703 
  39   0.0000       1.004343        27.3296 
  40   0.0000       1.006511        27.3885 
  41   0.0000       1.006392        27.3853 
  42   0.0000       1.011279        27.5183 
  43   0.0000       1.014968        27.6187 
  44   0.0000       1.017718        27.6935 
  45   0.0000       1.470896        40.0251 
  46   0.0000       1.887653        51.3657 
  47   0.0000       1.901851        51.7520 
  48   0.0000       1.914432        52.0943 
  49   0.0000       2.206444        60.0404 
  50   0.0000       2.206976        60.0549 
  51   0.0000       2.217383        60.3381 
  52   0.0000       2.222220        60.4697 
  53   0.0000       2.224831        60.5407 
  54   0.0000       3.155941        85.8775 
  55   0.0000       3.156396        85.8899 
  56   0.0000       3.158062        85.9352 
  57   0.0000       3.168330        86.2146 
  58   0.0000       3.168338        86.2149 
  59   0.0000       3.175792        86.4177 
  60   0.0000       3.176691        86.4422 
  61   0.0000       7.530986       204.9285 
  62   0.0000       7.538256       205.1264 
  63   0.0000       7.559000       205.6908 
  64   0.0000       7.726398       210.2460 
  65   0.0000       7.726520       210.2493 
  66   0.0000       7.738763       210.5825 
  67   0.0000       7.746540       210.7941 
  68   0.0000       7.747859       210.8300 
  69   0.0000       8.658172       235.6008 
  70   0.0000       8.658182       235.6011 
  71   0.0000       8.668806       235.8902 
  72   0.0000       8.671325       235.9588 
  73   0.0000       8.673016       236.0048 
  74   0.0000       8.676623       236.1029 
  75   0.0000       8.685100       236.3336 
  76   0.0000       8.920871       242.7492 
  77   0.0000      13.375762       363.9730 
  78   0.0000      44.241480      1203.8719 
  79   0.0000      44.265422      1204.5234 
  80   0.0000      44.278287      1204.8734 
  81   0.0000      74.782179      2034.9266 
  82   0.0000     266.655194      7256.0567 
  83   0.0000     625.606337     17023.6139 

Warning: MO coefficients are modified such that the real solid harmonic m components
have the correct order within each shell (0, +1, -1, +2, -2, ...) and all s orbitals
come before all p orbitals etc. (with increasing orbital energy within each block of given angular momentum).

CleanUpVectors: The p-vectors have cracked symmetry
CleanUpVectors: The p-vectors have cracked symmetry
CleanUpVectors: The p-vectors have cracked symmetry
CleanUpVectors: The d-vectors have cracked symmetry at i=4
CleanUpVectors: The d-vectors have cracked symmetry at i=5
CleanUpVectors: The d-vectors have cracked symmetry at i=6
CleanUpVectors: The d-vectors have cracked symmetry at i=7
CleanUpVectors: The d-vectors have cracked symmetry at i=8
CleanUpVectors: The p-vectors have cracked symmetry
CleanUpVectors: The p-vectors have cracked symmetry
CleanUpVectors: The p-vectors have cracked symmetry
CleanUpVectors: The f-vectors have cracked symmetry
CleanUpVectors: The f-vectors have cracked symmetry
CleanUpVectors: The f-vectors have cracked symmetry
CleanUpVectors: The f-vectors have cracked symmetry
CleanUpVectors: The f-vectors have cracked symmetry
CleanUpVectors: The f-vectors have cracked symmetry
CleanUpVectors: The f-vectors have cracked symmetry
CleanUpVectors: The d-vectors have cracked symmetry at i=20
CleanUpVectors: The p-vectors have cracked symmetry
CleanUpVectors: The p-vectors have cracked symmetry
CleanUpVectors: The p-vectors have cracked symmetry
CleanUpVectors: The d-vectors have cracked symmetry at i=26
CleanUpVectors: The d-vectors have cracked symmetry at i=27
CleanUpVectors: The d-vectors have cracked symmetry at i=28
CleanUpVectors: The d-vectors have cracked symmetry at i=29
CleanUpVectors: The p-vectors have cracked symmetry
CleanUpVectors: The p-vectors have cracked symmetry
CleanUpVectors: The p-vectors have cracked symmetry
CleanUpVectors: The d-vectors have cracked symmetry at i=33
CleanUpVectors: The d-vectors have cracked symmetry at i=34
CleanUpVectors: The d-vectors have cracked symmetry at i=35
CleanUpVectors: The d-vectors have cracked symmetry at i=36
CleanUpVectors: The d-vectors have cracked symmetry at i=37
CleanUpVectors: The f-vectors have cracked symmetry
CleanUpVectors: The f-vectors have cracked symmetry
CleanUpVectors: The f-vectors have cracked symmetry
CleanUpVectors: The f-vectors have cracked symmetry
CleanUpVectors: The f-vectors have cracked symmetry
CleanUpVectors: The f-vectors have cracked symmetry
CleanUpVectors: The f-vectors have cracked symmetry
CleanUpVectors: The p-vectors have cracked symmetry
CleanUpVectors: The p-vectors have cracked symmetry
CleanUpVectors: The p-vectors have cracked symmetry
CleanUpVectors: The d-vectors have cracked symmetry at i=49
CleanUpVectors: The d-vectors have cracked symmetry at i=50
CleanUpVectors: The d-vectors have cracked symmetry at i=51
CleanUpVectors: The d-vectors have cracked symmetry at i=52
CleanUpVectors: The d-vectors have cracked symmetry at i=53
CleanUpVectors: The f-vectors have cracked symmetry
CleanUpVectors: The f-vectors have cracked symmetry
CleanUpVectors: The f-vectors have cracked symmetry
CleanUpVectors: The f-vectors have cracked symmetry
CleanUpVectors: The f-vectors have cracked symmetry
CleanUpVectors: The f-vectors have cracked symmetry
CleanUpVectors: The f-vectors have cracked symmetry
CleanUpVectors: The p-vectors have cracked symmetry
CleanUpVectors: The p-vectors have cracked symmetry
CleanUpVectors: The p-vectors have cracked symmetry
CleanUpVectors: The d-vectors have cracked symmetry at i=64
CleanUpVectors: The d-vectors have cracked symmetry at i=65
CleanUpVectors: The d-vectors have cracked symmetry at i=66
CleanUpVectors: The d-vectors have cracked symmetry at i=67
CleanUpVectors: The d-vectors have cracked symmetry at i=68
CleanUpVectors: The f-vectors have cracked symmetry
CleanUpVectors: The f-vectors have cracked symmetry
CleanUpVectors: The f-vectors have cracked symmetry
CleanUpVectors: The f-vectors have cracked symmetry
CleanUpVectors: The f-vectors have cracked symmetry
CleanUpVectors: The f-vectors have cracked symmetry
CleanUpVectors: The f-vectors have cracked symmetry
CleanUpVectors: The p-vectors have cracked symmetry
CleanUpVectors: The p-vectors have cracked symmetry
CleanUpVectors: The p-vectors have cracked symmetry
--------------------------
ATOM BASIS FOR ELEMENT Ho
--------------------------
 NewGTO Ho
 S 14
    1      86373.955000000002        -0.000077974857
    2      13014.200000000001        -0.000587810471
    3       2974.241700000000        -0.002800097166
    4        840.771000000000        -0.008361304068
    5        258.122300000000        -0.013414674710
    6         49.764800000000         0.179197401864
    7         35.546300000000        -0.610433621038
    8         18.129000000000         1.043016812905
    9          4.445600000000        -0.995177314668
   10          2.217000000000        -0.390443426957
   11          0.832900000000        -0.015333266964
   12          0.354400000000         0.001082147027
   13          0.059700000000        -0.000319458794
   14          0.024400000000         0.000144002239
 P 46
    1       1332.986308200000        -0.000791849146
    2        314.406879310000        -0.005375557947
    3         97.911719435000        -0.016049271635
    4         27.909961603000        -0.076660688463
    5         16.545097311000         0.270899068898
    6          3.933156810700        -0.322005522640
    7       1332.986308200000         0.000672859958
    8        314.406879310000         0.004567786316
    9         97.911719435000         0.013637587780
   10         27.909961603000         0.065141078793
   11         16.545097311000        -0.230191744243
   12          3.933156810700         0.273618559170
   13       1332.986308200000        -0.000018884571
   14        314.406879310000        -0.000128200056
   15         97.911719435000        -0.000382754226
   16         27.909961603000        -0.001828257579
   17         16.545097311000         0.006460589983
   18          3.933156810700        -0.007679412345
   19         11.734112679000        -0.150045907873
   20          5.725958673600        -0.265995862996
   21          2.147425152800        -0.206100515305
   22         11.734112679000         0.127498972327
   23          5.725958673600         0.226025485507
   24          2.147425152800         0.175130426881
   25         11.734112679000        -0.003576014369
   26          5.725958673600        -0.006339426657
   27          2.147425152800        -0.004911952713
   28          1.983613463400        -0.004301879724
   29          1.983613463400         0.003653585177
   30          1.983613463400        -0.000149913766
   31          0.845992638800        -0.019056603518
   32          0.845992638800         0.016191857301
   33          0.845992638800        -0.000463811730
   34          0.359046628200         0.001791527440
   35          0.359046628200        -0.001522077184
   36          0.359046628200         0.000046918472
   37          0.127805820500        -0.000642413817
   38          0.127805820500         0.000545892937
   39          0.127805820500        -0.000015833857
   40          0.038623978500         0.000153236202
   41          0.038623978500        -0.000130191771
   42        136.467800000000        -0.000772976767
   43         49.569200000000        -0.002600945732
   44         22.247100000000        -0.003763667443
   45         10.135900000000        -0.003099823500
   46          4.618600000000        -0.001770117764
 D 46
    1      86373.955000000002         0.000000000001
    2      13014.200000000001         0.000000000026
    3       2974.241700000000         0.000000000550
    4        840.771000000000         0.000000005815
    5        258.122300000000         0.000000030387
    6         49.764800000000        -0.000001598703
    7         35.546300000000         0.000007540319
    8         18.129000000000        -0.000024351384
    9          4.445600000000         0.000090348209
   10          2.217000000000         0.000029986620
   11          0.832900000000         0.000258973245
   12          0.354400000000         0.000007092833
   13          0.059700000000         0.000039350687
   14          0.024400000000        -0.000363868290
   15        454.440400000000        -0.000319965927
   16        137.412300000000        -0.002630029867
   17         52.693600000000        -0.010784504474
   18         22.603700000000        -0.023088020952
   19          8.780800000000        -0.087809769235
   20          4.375200000000        -0.137327577416
   21        454.440400000000         0.000981315617
   22        137.412300000000         0.008066138201
   23         52.693600000000         0.033075405187
   24         22.603700000000         0.070809525816
   25          8.780800000000         0.269307106684
   26          4.375200000000         0.421175147868
   27        454.440400000000         0.000022939726
   28        137.412300000000         0.000188558090
   29         52.693600000000         0.000773187253
   30         22.603700000000         0.001655278973
   31          8.780800000000         0.006295457933
   32          4.375200000000         0.009845601397
   33        454.440400000000        -0.000240313941
   34        137.412300000000        -0.001975312964
   35         52.693600000000        -0.008099821133
   36         22.603700000000        -0.017340513001
   37          8.780800000000        -0.065950496501
   38          4.375200000000        -0.103141392954
   39        454.440400000000         0.000023309446
   40        137.412300000000         0.000191597090
   41         52.693600000000         0.000785648748
   42         22.603700000000         0.001681957182
   43          8.780800000000         0.006396922125
   44          4.375200000000         0.010004283419
   45          2.102200000000        -0.085565078445
   46          2.102200000000         0.262409044794
 S 14
    1      86373.955000000002        -0.000071942878
    2      13014.200000000001        -0.000542338628
    3       2974.241700000000        -0.002583487243
    4        840.771000000000        -0.007714490289
    5        258.122300000000        -0.012376942273
    6         49.764800000000         0.065927040871
    7         35.546300000000        -0.259432115581
    8         18.129000000000         0.503929141345
    9          4.445600000000        -0.725930550965
   10          2.217000000000        -0.394962986206
   11          0.832900000000         0.730799420646
   12          0.354400000000         0.629171001207
   13          0.059700000000         0.034368996676
   14          0.024400000000        -0.012005530811
 S 14
    1      86373.955000000002        -0.000010502864
    2      13014.200000000001        -0.000079175440
    3       2974.241700000000        -0.000377160559
    4        840.771000000000        -0.001126230245
    5        258.122300000000        -0.001806896658
    6         49.764800000000         0.007761018401
    7         35.546300000000        -0.032432179143
    8         18.129000000000         0.065126655700
    9          4.445600000000        -0.095132878658
   10          2.217000000000        -0.071410052063
   11          0.832900000000         0.155402549538
   12          0.354400000000         0.117551242997
   13          0.059700000000         0.427383440703
   14          0.024400000000        -1.362631959252
 S 14
    1      86373.955000000002        -0.000023038203
    2      13014.200000000001        -0.000173672606
    3       2974.241700000000        -0.000827307771
    4        840.771000000000        -0.002470404211
    5        258.122300000000        -0.003963456970
    6         49.764800000000         0.022987593876
    7         35.546300000000        -0.083384240909
    8         18.129000000000         0.154892512059
    9          4.445600000000        -0.265753778047
   10          2.217000000000        -0.003487863159
   11          0.832900000000        -0.005976994343
   12          0.354400000000         0.883019359696
   13          0.059700000000        -2.463317513568
   14          0.024400000000         1.690563328014
 S 14
    1      86373.955000000002        -0.000075011134
    2      13014.200000000001        -0.000565468553
    3       2974.241700000000        -0.002693669082
    4        840.771000000000        -0.008043501678
    5        258.122300000000        -0.012904800216
    6         49.764800000000         0.000225979595
    7         35.546300000000        -0.104282288212
    8         18.129000000000         0.311913318821
    9          4.445600000000        -0.168291346017
   10          2.217000000000        -1.808718222685
   11          0.832900000000         4.548447461206
   12          0.354400000000        -3.684823854886
   13          0.059700000000         1.408382471925
   14          0.024400000000        -0.667379008971
 S 14
    1      86373.955000000002         0.000578581579
    2      13014.200000000001         0.004361615033
    3       2974.241700000000         0.020777013144
    4        840.771000000000         0.062041748644
    5        258.122300000000         0.099538286099
    6         49.764800000000        -0.356873955616
    7         35.546300000000         1.147496531644
    8         18.129000000000        -1.919639756714
    9          4.445600000000         6.124142694546
   10          2.217000000000        -8.143527310531
   11          0.832900000000         5.205978027610
   12          0.354400000000        -2.201522319257
   13          0.059700000000         0.541411812288
   14          0.024400000000        -0.253015504789
 S 14
    1      86373.955000000002         0.002917887842
    2      13014.200000000001         0.021996385543
    3       2974.241700000000         0.104782102057
    4        840.771000000000         0.312887362249
    5        258.122300000000         0.501988942306
    6         49.764800000000         0.709190273503
    7         35.546300000000        -0.980711660814
    8         18.129000000000         0.890249979120
    9          4.445600000000        -1.576673818852
   10          2.217000000000         1.799359037782
   11          0.832900000000        -1.002641142565
   12          0.354400000000         0.403661976398
   13          0.059700000000        -0.098528050776
   14          0.024400000000         0.046182106232
 S 14
    1      86373.955000000002         0.000538891529
    2      13014.200000000001         0.004062413115
    3       2974.241700000000         0.019351733255
    4        840.771000000000         0.057785754001
    5        258.122300000000         0.092710070880
    6         49.764800000000        -5.005511020626
    7         35.546300000000        10.175701330142
    8         18.129000000000        -7.571654227366
    9          4.445600000000         4.730703301532
   10          2.217000000000        -3.952602632764
   11          0.832900000000         1.795454652600
   12          0.354400000000        -0.696836973551
   13          0.059700000000         0.173565701229
   14          0.024400000000        -0.082027593868
 S 14
    1      86373.955000000002        -0.000391243462
    2      13014.200000000001        -0.002949373825
    3       2974.241700000000        -0.014049653225
    4        840.771000000000        -0.041953337944
    5        258.122300000000        -0.067308924174
    6         49.764800000000        -8.421028667368
    7         35.546300000000        13.638668347803
    8         18.129000000000        -5.814799960684
    9          4.445600000000         2.253278234284
   10          2.217000000000        -1.764429309151
   11          0.832900000000         0.784726322910
   12          0.354400000000        -0.305232388386
   13          0.059700000000         0.076598757205
   14          0.024400000000        -0.036262139814
 S 14
    1      86373.955000000002        -0.003800353790
    2      13014.200000000001        -0.028648821235
    3       2974.241700000000        -0.136471680973
    4        840.771000000000        -0.407514866023
    5        258.122300000000        -0.653807028505
    6         49.764800000000        10.650565681736
    7         35.546300000000       -13.260996952631
    8         18.129000000000         4.444065578285
    9          4.445600000000        -1.532583732974
   10          2.217000000000         1.191992945883
   11          0.832900000000        -0.530684893174
   12          0.354400000000         0.206918082220
   13          0.059700000000        -0.052066549065
   14          0.024400000000         0.024660493285
 P 46
    1       1332.986308200000        -0.000389630583
    2        314.406879310000        -0.002645051505
    3         97.911719435000        -0.007897068643
    4         27.909961603000        -0.037721008951
    5         16.545097311000         0.133296300980
    6          3.933156810700        -0.158443309671
    7       1332.986308200000         0.000325805238
    8        314.406879310000         0.002211765896
    9         97.911719435000         0.006603450658
   10         27.909961603000         0.031541934435
   11         16.545097311000        -0.111461047912
   12          3.933156810700         0.132488727750
   13       1332.986308200000        -0.000015803884
   14        314.406879310000        -0.000107286461
   15         97.911719435000        -0.000320314574
   16         27.909961603000        -0.001530009356
   17         16.545097311000         0.005406657810
   18          3.933156810700        -0.006426650638
   19         11.734112679000        -0.093607119109
   20          5.725958673600        -0.165943255520
   21          2.147425152800        -0.128577151873
   22         11.734112679000         0.078274050665
   23          5.725958673600         0.138761356121
   24          2.147425152800         0.107515909003
   25         11.734112679000        -0.003794289293
   26          5.725958673600        -0.006726376409
   27          2.147425152800        -0.005211771448
   28          1.983613463400         0.101264589711
   29          1.983613463400        -0.084691308559
   30          1.983613463400         0.004058594891
   31          0.845992638800         0.390717994657
   32          0.845992638800        -0.326770587799
   33          0.845992638800         0.015675282710
   34          0.359046628200         0.400719981275
   35          0.359046628200        -0.334918186483
   36          0.359046628200         0.016654422014
   37          0.127805820500         0.091953872685
   38          0.127805820500        -0.076980206552
   39          0.127805820500         0.003797190131
   40          0.038623978500        -0.003611537439
   41          0.038623978500         0.002984617186
   42          0.038623978500        -0.000512052936
   43        136.467800000000         0.005689611436
   44         49.569200000000         0.019144651177
   45         22.247100000000         0.027703038729
   46         10.135900000000         0.022816715819
 F 46
    1       1332.986308200000         0.000000000242
    2        314.406879310000         0.000000006952
    3         97.911719435000         0.000000066649
    4         27.909961603000         0.000001116823
    5         16.545097311000        -0.000006657465
    6          3.933156810700         0.000033288387
    7       1332.986308200000         0.000000000283
    8        314.406879310000         0.000000008136
    9         97.911719435000         0.000000078000
   10         27.909961603000         0.000001307031
   11         16.545097311000        -0.000007791314
   12          3.933156810700         0.000038957816
   13       1332.986308200000         0.000000000044
   14        314.406879310000         0.000000001261
   15         97.911719435000         0.000000012089
   16         27.909961603000         0.000000202582
   17         16.545097311000        -0.000001207607
   18          3.933156810700         0.000006038228
   19         11.734112679000         0.000005908917
   20          5.725958673600         0.000021466473
   21          2.147425152800         0.000044350147
   22         11.734112679000         0.000006931435
   23          5.725958673600         0.000025181173
   24          2.147425152800         0.000052024788
   25         11.734112679000         0.000001217141
   26          5.725958673600         0.000004421745
   27          2.147425152800         0.000009135411
   28          1.983613463400        -0.000031755040
   29          1.983613463400        -0.000038111867
   30          1.983613463400        -0.000013754607
   31          0.845992638800        -0.000146082510
   32          0.845992638800        -0.000175065751
   33          0.845992638800        -0.000064975196
   34          0.359046628200        -0.000119629254
   35          0.359046628200        -0.000146341512
   36          0.359046628200        -0.000192654324
   37          0.127805820500         0.000034723084
   38          0.127805820500         0.000090301656
   39          0.127805820500         0.000948826327
   40          0.038623978500        -0.004465316938
   41          0.038623978500        -0.004782588915
   42          0.038623978500         0.003610678343
   43        136.467800000000         0.001864570592
   44         49.569200000000         0.017272768822
   45         22.247100000000         0.055690409945
   46         10.135900000000         0.100673977815
 D 46
    1      86373.955000000002        -0.000000000002
    2      13014.200000000001        -0.000000000085
    3       2974.241700000000        -0.000000001775
    4        840.771000000000        -0.000000018750
    5        258.122300000000        -0.000000097985
    6         49.764800000000         0.000002685148
    7         35.546300000000        -0.000014178187
    8         18.129000000000         0.000052871370
    9          4.445600000000        -0.000356126499
   10          2.217000000000        -0.000142496240
   11          0.832900000000         0.000876680133
   12          0.354400000000         0.012757117501
   13          0.059700000000        -0.296090403005
   14          0.024400000000         0.676930193848
   15        454.440400000000        -0.000007664866
   16        137.412300000000        -0.000063003038
   17         52.693600000000        -0.000258345563
   18         22.603700000000        -0.000553079448
   19          8.780800000000        -0.002103505484
   20          4.375200000000        -0.003289717246
   21        454.440400000000         0.000017283438
   22        137.412300000000         0.000142064994
   23         52.693600000000         0.000582541125
   24         22.603700000000         0.001247133954
   25          8.780800000000         0.004743175905
   26          4.375200000000         0.007417954312
   27        454.440400000000         0.000151881991
   28        137.412300000000         0.001248427221
   29         52.693600000000         0.005119207624
   30         22.603700000000         0.010959462549
   31          8.780800000000         0.041681696294
   32          4.375200000000         0.065186896908
   33        454.440400000000        -0.000005364346
   34        137.412300000000        -0.000044093413
   35         52.693600000000        -0.000180806163
   36         22.603700000000        -0.000387079119
   37          8.780800000000        -0.001472162910
   38          4.375200000000        -0.002302347083
   39        454.440400000000        -0.000129840983
   40        137.412300000000        -0.001067256337
   41         52.693600000000        -0.004376311800
   42         22.603700000000        -0.009369033021
   43          8.780800000000        -0.035632877728
   44          4.375200000000        -0.055727020096
   45          2.102200000000        -0.000604239002
   46          2.102200000000         0.001332377094
 D 46
    1      86373.955000000002         0.000000000000
    2      13014.200000000001         0.000000000001
    3       2974.241700000000         0.000000000018
    4        840.771000000000         0.000000000187
    5        258.122300000000         0.000000000975
    6         49.764800000000        -0.000000027811
    7         35.546300000000         0.000000145072
    8         18.129000000000        -0.000000533737
    9          4.445600000000         0.000003489332
   10          2.217000000000         0.000001013047
   11          0.832900000000        -0.000003548499
   12          0.354400000000        -0.000113247231
   13          0.059700000000         0.001553904577
   14          0.024400000000        -0.002368797683
   15        454.440400000000         0.000097075334
   16        137.412300000000         0.000797931929
   17         52.693600000000         0.003271940202
   18         22.603700000000         0.007004737596
   19          8.780800000000         0.026640845186
   20          4.375200000000         0.041664187955
   21        454.440400000000         0.000017357306
   22        137.412300000000         0.000142672173
   23         52.693600000000         0.000585030882
   24         22.603700000000         0.001252464152
   25          8.780800000000         0.004763448042
   26          4.375200000000         0.007449658341
   27        454.440400000000         0.000043846678
   28        137.412300000000         0.000360407356
   29         52.693600000000         0.001477859547
   30         22.603700000000         0.003163877604
   31          8.780800000000         0.012033052242
   32          4.375200000000         0.018818747934
   33        454.440400000000        -0.000056628934
   34        137.412300000000        -0.000465473902
   35         52.693600000000        -0.001908687592
   36         22.603700000000        -0.004086216406
   37          8.780800000000        -0.015540947421
   38          4.375200000000        -0.024304820279
   39        454.440400000000         0.000050274738
   40        137.412300000000         0.000413244201
   41         52.693600000000         0.001694518374
   42         22.603700000000         0.003627711948
   43          8.780800000000         0.013797135304
   44          4.375200000000         0.021577635189
   45          2.102200000000         0.015956864586
   46          2.102200000000         0.002855720510
 P 46
    1       1332.986308200000         0.000063911839
    2        314.406879310000         0.000433872784
    3         97.911719435000         0.001295371056
    4         27.909961603000         0.006187448204
    5         16.545097311000        -0.021864843520
    6          3.933156810700         0.025989754759
    7       1332.986308200000        -0.000054115297
    8        314.406879310000        -0.000367367843
    9         97.911719435000        -0.001096813832
   10         27.909961603000        -0.005239023014
   11         16.545097311000         0.018513353909
   12          3.933156810700        -0.022005990000
   13       1332.986308200000        -0.000255390594
   14        314.406879310000        -0.001733748081
   15         97.911719435000        -0.005176280149
   16         27.909961603000        -0.024724935121
   17         16.545097311000         0.087371533405
   18          3.933156810700        -0.103854606782
   19         11.734112679000         0.015213614218
   20          5.725958673600         0.026970135344
   21          2.147425152800         0.020897162571
   22         11.734112679000        -0.012880664654
   23          5.725958673600        -0.022834368221
   24          2.147425152800        -0.017692662600
   25         11.734112679000        -0.060751752869
   26          5.725958673600        -0.107698471501
   27          2.147425152800        -0.083447577808
   28          1.983613463400        -0.046449546002
   29          1.983613463400         0.039325229258
   30          1.983613463400         0.185134078654
   31          0.845992638800         0.014101490379
   32          0.845992638800        -0.012052089158
   33          0.845992638800        -0.059955197760
   34          0.359046628200        -0.277720506826
   35          0.359046628200         0.235407999949
   36          0.359046628200         1.117195744968
   37          0.127805820500         0.477149381443
   38          0.127805820500        -0.404111774694
   39          0.127805820500        -1.904775133063
   40          0.038623978500        -0.204231355858
   41          0.038623978500         0.172879460315
   42          0.038623978500         0.811658256095
   43        136.467800000000         0.004702865850
   44         49.569200000000         0.015824406860
   45         22.247100000000         0.022898518863
   46         10.135900000000         0.018859627736
 D 46
    1      86373.955000000002         0.000000000000
    2      13014.200000000001         0.000000000000
    3       2974.241700000000         0.000000000000
    4        840.771000000000         0.000000000003
    5        258.122300000000         0.000000000013
    6         49.764800000000        -0.000000005455
    7         35.546300000000         0.000000017580
    8         18.129000000000        -0.000000039558
    9          4.445600000000         0.000000493953
   10          2.217000000000        -0.000002695297
   11          0.832900000000         0.000018357543
   12          0.354400000000        -0.000051154531
   13          0.059700000000         0.000279449825
   14          0.024400000000        -0.000508102304
   15        454.440400000000         0.000271062727
   16        137.412300000000         0.002228059333
   17         52.693600000000         0.009136214057
   18         22.603700000000         0.019559276189
   19          8.780800000000         0.074389031964
   20          4.375200000000         0.116338599166
   21        454.440400000000         0.000048844266
   22        137.412300000000         0.000401486118
   23         52.693600000000         0.001646304055
   24         22.603700000000         0.003524492258
   25          8.780800000000         0.013404563886
   26          4.375200000000         0.020963684347
   27        454.440400000000         0.000049050995
   28        137.412300000000         0.000403185378
   29         52.693600000000         0.001653271915
   30         22.603700000000         0.003539409410
   31          8.780800000000         0.013461297707
   32          4.375200000000         0.021052411584
   33        454.440400000000        -0.000157033680
   34        137.412300000000        -0.001290772654
   35         52.693600000000        -0.005292846150
   36         22.603700000000        -0.011331196820
   37          8.780800000000        -0.043095498743
   38          4.375200000000        -0.067397972816
   39        454.440400000000         0.000052337244
   40        137.412300000000         0.000430197414
   41         52.693600000000         0.001764035458
   42         22.603700000000         0.003776537690
   43          8.780800000000         0.014363158442
   44          4.375200000000         0.022462850888
   45          2.102200000000        -0.029820959237
   46          2.102200000000        -0.005375928768
 F 46
    1       1332.986308200000         0.000000000055
    2        314.406879310000         0.000000001578
    3         97.911719435000         0.000000015129
    4         27.909961603000         0.000000253512
    5         16.545097311000        -0.000001511206
    6          3.933156810700         0.000007556269
    7       1332.986308200000        -0.000000000072
    8        314.406879310000        -0.000000002078
    9         97.911719435000        -0.000000019923
   10         27.909961603000        -0.000000333850
   11         16.545097311000         0.000001990104
   12          3.933156810700        -0.000009950837
   13       1332.986308200000        -0.000000000491
   14        314.406879310000        -0.000000014138
   15         97.911719435000        -0.000000135538
   16         27.909961603000        -0.000002271197
   17         16.545097311000         0.000013538779
   18          3.933156810700        -0.000067696057
   19         11.734112679000         0.000001326508
   20          5.725958673600         0.000004819064
   21          2.147425152800         0.000009956280
   22         11.734112679000        -0.000001632539
   23          5.725958673600        -0.000005930842
   24          2.147425152800        -0.000012253233
   25         11.734112679000        -0.000011291387
   26          5.725958673600        -0.000041020415
   27          2.147425152800        -0.000084748969
   28          1.983613463400        -0.000067442083
   29          1.983613463400         0.000116678230
   30          1.983613463400         0.000751015782
   31          0.845992638800         0.000321808803
   32          0.845992638800        -0.000671578694
   33          0.845992638800        -0.004101441439
   34          0.359046628200        -0.001363682678
   35          0.359046628200         0.002875326029
   36          0.359046628200         0.016781073896
   37          0.127805820500         0.002499527275
   38          0.127805820500        -0.007748350783
   39          0.127805820500        -0.039523244397
   40          0.038623978500        -0.006698064378
   41          0.038623978500         0.011290423862
   42          0.038623978500         0.062867290707
   43        136.467800000000         0.000099042910
   44         49.569200000000         0.000917500949
   45         22.247100000000         0.002958182587
   46         10.135900000000         0.005347635409
 P 46
    1       1332.986308200000         0.000031232924
    2        314.406879310000         0.000212028258
    3         97.911719435000         0.000633031798
    4         27.909961603000         0.003023729334
    5         16.545097311000        -0.010685078331
    6          3.933156810700         0.012700871385
    7       1332.986308200000        -0.000027916588
    8        314.406879310000        -0.000189514933
    9         97.911719435000        -0.000565815991
   10         27.909961603000        -0.002702667409
   11         16.545097311000         0.009550528430
   12          3.933156810700        -0.011352283015
   13       1332.986308200000        -0.000352758597
   14        314.406879310000        -0.002394741842
   15         97.911719435000        -0.007149743840
   16         27.909961603000        -0.034151349517
   17         16.545097311000         0.120682046708
   18          3.933156810700        -0.143449313730
   19         11.734112679000         0.008826114541
   20          5.725958673600         0.015646611010
   21          2.147425152800         0.012123401303
   22         11.734112679000        -0.007890692653
   23          5.725958673600        -0.013988329517
   24          2.147425152800        -0.010838521657
   25         11.734112679000        -0.099736569381
   26          5.725958673600        -0.176809319367
   27          2.147425152800        -0.136996460854
   28          1.983613463400         0.039687522522
   29          1.983613463400        -0.035752488406
   30          1.983613463400        -0.458409481277
   31          0.845992638800        -0.242868775996
   32          0.845992638800         0.217663125963
   33          0.845992638800         2.763608322036
   34          0.359046628200         0.269314710856
   35          0.359046628200        -0.241046020635
   36          0.359046628200        -3.052447714874
   37          0.127805820500        -0.125764995067
   38          0.127805820500         0.112468545490
   39          0.127805820500         1.421952057521
   40          0.038623978500         0.033802860542
   41          0.038623978500        -0.030238100480
   42          0.038623978500        -0.382425143514
   43        136.467800000000         0.000774281245
   44         49.569200000000         0.002605335096
   45         22.247100000000         0.003770019020
   46         10.135900000000         0.003105054772
 D 46
    1      86373.955000000002         0.000000000000
    2      13014.200000000001         0.000000000000
    3       2974.241700000000         0.000000000002
    4        840.771000000000         0.000000000018
    5        258.122300000000         0.000000000095
    6         49.764800000000         0.000000063509
    7         35.546300000000        -0.000000178821
    8         18.129000000000         0.000000356890
    9          4.445600000000        -0.000007791997
   10          2.217000000000         0.000032765528
   11          0.832900000000        -0.000081357458
   12          0.354400000000         0.000097175392
   13          0.059700000000        -0.000588670106
   14          0.024400000000         0.000942517087
   15        454.440400000000        -0.000032269359
   16        137.412300000000        -0.000265245047
   17         52.693600000000        -0.001087644073
   18         22.603700000000        -0.002328484281
   19          8.780800000000        -0.008855833413
   20          4.375200000000        -0.013849827408
   21        454.440400000000        -0.000004230343
   22        137.412300000000        -0.000034772233
   23         52.693600000000        -0.000142584426
   24         22.603700000000        -0.000305252060
   25          8.780800000000        -0.001160953249
   26          4.375200000000        -0.001815639633
   27        454.440400000000         0.000340633495
   28        137.412300000000         0.002799911461
   29         52.693600000000         0.011481108276
   30         22.603700000000         0.024579346141
   31          8.780800000000         0.093481668137
   32          4.375200000000         0.146197981500
   33        454.440400000000         0.000026272649
   34        137.412300000000         0.000215953781
   35         52.693600000000         0.000885523981
   36         22.603700000000         0.001895775209
   37          8.780800000000         0.007210127884
   38          4.375200000000         0.011276073309
   39        454.440400000000         0.000396398737
   40        137.412300000000         0.003258286057
   41         52.693600000000         0.013360684983
   42         22.603700000000         0.028603240470
   43          8.780800000000         0.108785588435
   44          4.375200000000         0.170132109989
   45          2.102200000000        -0.015719132530
   46          2.102200000000        -0.001993772225
 F 46
    1       1332.986308200000        -0.000000000034
    2        314.406879310000        -0.000000000982
    3         97.911719435000        -0.000000009411
    4         27.909961603000        -0.000000157691
    5         16.545097311000         0.000000940007
    6          3.933156810700        -0.000004700183
    7       1332.986308200000        -0.000000000036
    8        314.406879310000        -0.000000001042
    9         97.911719435000        -0.000000009989
   10         27.909961603000        -0.000000167384
   11         16.545097311000         0.000000997790
   12          3.933156810700        -0.000004989107
   13       1332.986308200000        -0.000000000012
   14        314.406879310000        -0.000000000350
   15         97.911719435000        -0.000000003354
   16         27.909961603000        -0.000000056202
   17         16.545097311000         0.000000335023
   18          3.933156810700        -0.000001675169
   19         11.734112679000        -0.000001505103
   20          5.725958673600        -0.000005467882
   21          2.147425152800        -0.000011296749
   22         11.734112679000        -0.000001662147
   23          5.725958673600        -0.000006038405
   24          2.147425152800        -0.000012475461
   25         11.734112679000        -0.000000358976
   26          5.725958673600        -0.000001304120
   27          2.147425152800        -0.000002694337
   28          1.983613463400        -0.000272112254
   29          1.983613463400        -0.000321419849
   30          1.983613463400         0.000001129380
   31          0.845992638800         0.001726406239
   32          0.845992638800         0.002023844621
   33          0.845992638800         0.000044302904
   34          0.359046628200        -0.004275581623
   35          0.359046628200        -0.005022395321
   36          0.359046628200        -0.000086062742
   37          0.127805820500         0.006615066960
   38          0.127805820500         0.007783785106
   39          0.127805820500         0.000106185935
   40          0.038623978500        -0.005652180015
   41          0.038623978500        -0.006652079400
   42          0.038623978500        -0.000072661938
   43        136.467800000000         0.002316651223
   44         49.569200000000         0.021460695127
   45         22.247100000000         0.069193012520
   46         10.135900000000         0.125083220150
 P 46
    1       1332.986308200000         0.000041097672
    2        314.406879310000         0.000278996216
    3         97.911719435000         0.000832971404
    4         27.909961603000         0.003978757590
    5         16.545097311000        -0.014059901470
    6          3.933156810700         0.016712371658
    7       1332.986308200000        -0.000089064241
    8        314.406879310000        -0.000604622725
    9         97.911719435000        -0.001805162264
   10         27.909961603000        -0.008622508554
   11         16.545097311000         0.030469717733
[...]
   13       1332.986308200000        -0.002165662919
   14        314.406879310000        -0.014701848930
   15         97.911719435000        -0.043893856108
   16         27.909961603000        -0.209662675356
   17         16.545097311000         0.740893731523
   18          3.933156810700        -0.880667010820
   19         11.734112679000         0.010674969880
   20          5.725958673600         0.018924193708
   21          2.147425152800         0.014662957653
   22         11.734112679000        -0.023099122526
   23          5.725958673600        -0.040949274244
   24          2.147425152800        -0.031728563099
   25         11.734112679000        -0.561541158388
   26          5.725958673600        -0.995479497912
   27          2.147425152800        -0.771323415275
   28          1.983613463400        -0.088818216046
   29          1.983613463400         0.191867768657
   30          1.983613463400         4.663239439089
   31          0.845992638800         0.069844273619
   32          0.845992638800        -0.150342630060
   33          0.845992638800        -3.652328641579
   34          0.359046628200        -0.037090290703
   35          0.359046628200         0.079660319030
   36          0.359046628200         1.934668630538
   37          0.127805820500         0.012738794187
   38          0.127805820500        -0.027382552419
   39          0.127805820500        -0.665056872686
   40          0.038623978500        -0.003296038772
   41          0.038623978500         0.007094197416
   42          0.038623978500         0.172279277743
   43        136.467800000000         0.000011722522
   44         49.569200000000         0.000039444448
   45         22.247100000000         0.000057077618
   46         10.135900000000         0.000047010142
 D 46
    1      86373.955000000002        -0.000000000000
    2      13014.200000000001        -0.000000000013
    3       2974.241700000000        -0.000000000280
    4        840.771000000000        -0.000000002961
    5        258.122300000000        -0.000000015472
    6         49.764800000000         0.000000164867
    7         35.546300000000        -0.000000944710
    8         18.129000000000         0.000003781471
    9          4.445600000000        -0.000062261212
   10          2.217000000000         0.000184242786
   11          0.832900000000        -0.000318339399
   12          0.354400000000         0.000214776057
   13          0.059700000000         0.000442968292
   14          0.024400000000        -0.001068042974
   15        454.440400000000        -0.000036639404
   16        137.412300000000        -0.000301165587
   17         52.693600000000        -0.001234937161
   18         22.603700000000        -0.002643816888
   19          8.780800000000        -0.010055125612
   20          4.375200000000        -0.015725426145
   21        454.440400000000         0.000085428233
   22        137.412300000000         0.000702196037
   23         52.693600000000         0.002879372737
   24         22.603700000000         0.006164309009
   25          8.780800000000         0.023444475932
   26          4.375200000000         0.036665317671
   27        454.440400000000         0.001243862371
   28        137.412300000000         0.010224198625
   29         52.693600000000         0.041924586933
   30         22.603700000000         0.089754308494
   31          8.780800000000         0.341359059453
   32          4.375200000000         0.533858738864
   33        454.440400000000        -0.000087672425
   34        137.412300000000        -0.000720642663
   35         52.693600000000        -0.002955013601
   36         22.603700000000        -0.006326244853
   37          8.780800000000        -0.024060360212
   38          4.375200000000        -0.037628512277
   39        454.440400000000        -0.001050563070
   40        137.412300000000        -0.008635332770
   41         52.693600000000        -0.035409402015
   42         22.603700000000        -0.075806266074
   43          8.780800000000        -0.288311013941
   44          4.375200000000        -0.450895765150
   45          2.102200000000         0.051344965836
   46          2.102200000000        -0.119680129139
 F 46
    1       1332.986308200000        -0.000000001343
    2        314.406879310000        -0.000000038644
    3         97.911719435000        -0.000000370482
    4         27.909961603000        -0.000006208119
    5         16.545097311000         0.000037007074
    6          3.933156810700        -0.000185041281
    7       1332.986308200000        -0.000000001565
    8        314.406879310000        -0.000000045037
    9         97.911719435000        -0.000000431778
   10         27.909961603000        -0.000007235240
   11         16.545097311000         0.000043129820
   12          3.933156810700        -0.000215655984
   13       1332.986308200000        -0.000000000224
   14        314.406879310000        -0.000000006443
   15         97.911719435000        -0.000000061771
   16         27.909961603000        -0.000001035086
   17         16.545097311000         0.000006170226
   18          3.933156810700        -0.000030852115
   19         11.734112679000        -0.000041031801
   20          5.725958673600        -0.000149064199
   21          2.147425152800        -0.000307969507
   22         11.734112679000        -0.000047836775
   23          5.725958673600        -0.000173785950
   24          2.147425152800        -0.000359045122
   25         11.734112679000        -0.000006595738
   26          5.725958673600        -0.000023961619
   27          2.147425152800        -0.000049505166
   28          1.983613463400         0.001834644536
   29          1.983613463400         0.002138472003
   30          1.983613463400         0.000305366094
   31          0.845992638800        -0.002724553936
   32          0.845992638800        -0.003173131170
   33          0.845992638800        -0.000517946908
   34          0.359046628200         0.002536704477
   35          0.359046628200         0.002947264933
   36          0.359046628200         0.000644124043
   37          0.127805820500        -0.001777256768
   38          0.127805820500        -0.002056541608
   39          0.127805820500        -0.000642281825
   40          0.038623978500         0.001581623582
   41          0.038623978500         0.001832802755
   42          0.038623978500         0.000559144523
   43        136.467800000000         0.001799899335
   44         49.569200000000         0.016673675566
   45         22.247100000000         0.053758829123
   46         10.135900000000         0.097182175097
 P 46
    1       1332.986308200000        -0.000112014940
    2        314.406879310000        -0.000760426152
    3         97.911719435000        -0.002270329143
    4         27.909961603000        -0.010844417064
    5         16.545097311000         0.038321368411
    6          3.933156810700        -0.045550884740
    7       1332.986308200000        -0.000320414276
    8        314.406879310000        -0.002175168739
    9         97.911719435000        -0.006494186145
   10         27.909961603000        -0.031020023349
   11         16.545097311000         0.109616748959
   12          3.933156810700        -0.130296492647
   13       1332.986308200000        -0.006569276796
   14        314.406879310000        -0.044596282356
   15         97.911719435000        -0.133146708963
   16         27.909961603000        -0.635986392888
   17         16.545097311000         2.247411614992
   18          3.933156810700        -2.671396969425
   19         11.734112679000        -0.001567673041
   20          5.725958673600        -0.002779113068
   21          2.147425152800        -0.002153329112
   22         11.734112679000        -0.004501001895
   23          5.725958673600        -0.007979210500
   24          2.147425152800        -0.006182499898
   25         11.734112679000        -0.092289520107
   26          5.725958673600        -0.163607464504
   27          2.147425152800        -0.126767320221
   28          1.983613463400         0.054919276708
   29          1.983613463400         0.157216863029
   30          1.983613463400         3.223410728842
   31          0.845992638800        -0.031620793581
   32          0.845992638800        -0.090561347774
   33          0.845992638800        -1.856823173951
   34          0.359046628200         0.014969398537
   35          0.359046628200         0.042878335318
   36          0.359046628200         0.879168499562
   37          0.127805820500        -0.005180195613
   38          0.127805820500        -0.014834756571
   39          0.127805820500        -0.304158123115
   40          0.038623978500         0.001379058515
   41          0.038623978500         0.003947545571
   42          0.038623978500         0.080932209077
   43        136.467800000000         0.000001896491
   44         49.569200000000         0.000006381395
   45         22.247100000000         0.000009234122
   46         10.135900000000         0.000007605387
 end
-------------------------------------------
RADIAL EXPECTATION VALUES <R**-3> TO <R**3>
-------------------------------------------
   0 :     0.000000     6.398671     2.062764     0.532821     0.308326     0.193524
   1 :    21.326106     5.099663     2.033904     0.561296     0.351353     0.242959
   2 :    21.299434     5.096037     2.033165     0.561551     0.351719     0.243415
   3 :    21.308190     5.097413     2.033434     0.561471     0.351611     0.243280
   4 :    15.884474     4.858875     1.980592     0.599311     0.416179     1.651494
   5 :    15.880841     4.857983     1.980378     0.599406     0.416339     1.652627
   6 :    15.872568     4.855978     1.979887     0.599628     0.416721     1.655432
   7 :    15.879339     4.857261     1.980088     0.599706     0.417182     1.664490
   8 :    15.881671     4.857709     1.980162     0.599725     0.417315     1.667178
   9 :     0.000000     2.632242     0.913033     1.324901     1.977884     3.278335
  10 :     0.000000     0.085040     0.190815     6.080583    41.199855   304.948420
  11 :     0.000000     0.284350     0.260346     4.805727    32.047262   254.976959
  12 :     0.000000     2.435022     0.661469     2.337356     8.313808    45.250828
  13 :     0.000000   101.671513     2.616142     1.089664     2.080753     7.756698
  14 :     0.000000  2574.960134    34.611050     0.086213     0.077686     0.262135
  15 :     0.000000    63.153729     3.603321     0.412095     0.326380     0.842783
  16 :     0.000000   116.943607     6.567693     0.216402     0.088669     0.168493
  17 :     0.000000  1950.463667    22.311157     0.120954     0.039981     0.076957
  18 :     4.237263     1.075406     0.802643     1.565178     2.826808     5.790550
  19 :     4.215685     1.072230     0.801849     1.564509     2.818531     5.736813
  20 :     4.190413     1.066812     0.799419     1.571791     2.852271     5.879551
  21 :    10.529469     3.641723     1.654778     0.816034     0.906517     9.466315
  22 :    10.595592     3.661702     1.660919     0.810493     0.891069     9.185787
  23 :    10.593808     3.661181     1.660762     0.810621     0.891367     9.192735
  24 :    10.564542     3.651192     1.657071     0.817058     0.920759     9.521986
  25 :    10.541106     3.644308     1.655053     0.818507     0.923533     9.592698
  26 :    10.537912     3.643601     1.654974     0.817710     0.917533     9.569926
  27 :    10.479117     3.626755     1.650282     0.819985     0.917671     9.667294
  28 :     0.492124     0.252043     0.380391     3.328951    12.838151   274.725096
  29 :     0.082227     0.050991     0.186000     5.988490    38.474022   262.663378
  30 :     0.101295     0.056549     0.188540     5.974632    38.357179   261.770649
  31 :     0.099678     0.055892     0.188121     5.980958    38.426049   262.378630
  32 :     0.219079     0.168023     0.317124     3.794560    16.367856   344.461914
  33 :     0.231887     0.156189     0.317771     3.745370    15.641705   354.622689
  34 :     0.229514     0.155178     0.316988     3.751266    15.682442   355.785663
  35 :     0.223783     0.152709     0.314966     3.768288    15.804713   359.292173
  36 :     0.944238     0.251537     0.340811     3.998043    19.870854   119.182785
  37 :     0.970869     0.256801     0.342590     3.999648    19.922723   119.744471
  38 :     0.975224     0.257685     0.343146     3.994540    19.871828   119.304846
  39 :     1.003021     0.414685     0.456454     3.223668    13.204512   311.471164
  40 :     1.173468     0.485802     0.509790     2.824669    10.454883   233.186323
  41 :     1.179217     0.487137     0.510793     2.819066    10.417094   232.247932
  42 :     1.179017     0.487246     0.511119     2.813994    10.377855   231.064844
  43 :     1.193298     0.492402     0.514293     2.794536    10.248082   227.418733
  44 :     1.030323     0.444586     0.469622     2.693459     7.847464   167.452256
  45 :     1.005096     0.436818     0.467058     2.696786     7.858614   167.799321
  46 :     1.036968     0.446917     0.470440     2.692717     7.845083   167.552220
  47 :     1.032029     0.445340     0.469954     2.692722     7.842939   167.503596
  48 :     0.997944     0.434428     0.466275     2.697028     7.856520   167.777805
  49 :     1.017163     0.440606     0.468416     2.694055     7.846040   167.481356
  50 :     1.024533     0.442952     0.469105     2.694324     7.850276   167.576982
  51 :     3.363863     0.884656     0.663130     2.299257     7.396136    32.739667
  52 :     3.369306     0.882883     0.661770     2.304001     7.419037    32.827419
  53 :     3.374316     0.885668     0.663240     2.298895     7.388528    32.646686
  54 :     3.147805     1.098700     0.777071     1.917266     4.996542    84.508114
  55 :     3.148038     1.098276     0.776869     1.917983     4.999768    84.572467
  56 :     3.150869     1.099593     0.777589     1.915535     4.987053    84.274134
  57 :     3.109870     1.085839     0.771504     1.929070     5.036604    84.965626
  58 :     3.150604     1.099337     0.777036     1.917344     4.994228    84.380089
  59 :     3.520717     1.330190     0.867277     1.662232     3.444500    59.212350
  60 :     3.488270     1.321314     0.865086     1.661693     3.436701    58.937226
  61 :     3.488712     1.321247     0.864980     1.662161     3.439047    59.007141
  62 :     3.510381     1.327987     0.867028     1.660515     3.434444    58.911285
  63 :     3.498563     1.324161     0.865759     1.662157     3.440674    59.070939
  64 :     3.489961     1.321257     0.864752     1.663661     3.446795    59.226642
  65 :     3.497674     1.323873     0.865692     1.662069     3.440067    59.052189
  66 :    41.375683     4.729975     1.474264     1.201973     2.376542     7.813176
  67 :    41.467702     4.740011     1.476582     1.199486     2.367743     7.780064
  68 :    41.429140     4.736302     1.475747     1.200338     2.370200     7.786054
  69 :    18.237545     4.208959     1.548233     1.091466     1.829664    22.618118
  70 :    18.241208     4.207768     1.548397     1.091304     1.829161    22.611076
  71 :    18.188893     4.196367     1.545667     1.093360     1.836249    22.756272
  72 :    18.252481     4.210370     1.549097     1.090566     1.826579    22.565013
  73 :    18.244959     4.214995     1.548790     1.090930     1.827752    22.579055
  74 :    11.665333     3.483444     1.483792     1.042882     1.530966    20.761124
  75 :    11.666130     3.483705     1.483864     1.042828     1.530823    20.758799
  76 :    11.643919     3.477654     1.482177     1.044143     1.534039    20.805650
  77 :    11.651770     3.479601     1.482749     1.043694     1.533232    20.802114
  78 :    11.664138     3.483325     1.483748     1.042969     1.531246    20.767657
  79 :    11.652965     3.480064     1.482868     1.043626     1.533045    20.799779
  80 :    11.696119     3.491483     1.485849     1.041534     1.527437    20.698372
  81 :   123.701110    14.195703     3.161955     0.519975     0.601712     1.675975
  82 :   123.694437    14.196471     3.162188     0.519828     0.601268     1.674379
  83 :   123.698856    14.195593     3.161973     0.519912     0.601460     1.674862
Making the total density                ... o.k.
o.k.
Initializing the integrals              ... done
Making exponents                        ... done
Making rho(0)                           ... done (        38.781382487)
Integral calculation                    ... Two index integrals                     ... done
Solving the equation system             ... done
atomic density will be written to file hf_atom67.adf

-------
TIMINGS
-------

Total SCF time: 0 days 0 hours 0 min 1 sec 

Total time                  ....       1.394 sec
Sum of individual times     ....       1.073 sec  ( 76.9%)

Fock matrix formation       ....       0.983 sec  ( 70.5%)
Diagonalization             ....       0.074 sec  (  5.3%)
Density matrix formation    ....       0.004 sec  (  0.3%)
Population analysis         ....       0.000 sec  (  0.0%)
Initial guess               ....       0.001 sec  (  0.1%)
Orbital Transformation      ....       0.000 sec  (  0.0%)
Orbital Orthonormalization  ....       0.000 sec  (  0.0%)
DIIS solution               ....       0.010 sec  (  0.7%)

Maximum memory used throughout the entire SCF-calculation: 268.1 MB

-------------------------   --------------------
FINAL SINGLE POINT ENERGY      -944.979623297874
-------------------------   --------------------


                            ***************************************
                            *     ORCA property calculations      *
                            ***************************************

                                    ---------------------
                                    Active property flags
                                    ---------------------
   (+) Dipole Moment


------------------------------------------------------------------------------
                       ORCA ELECTRIC PROPERTIES CALCULATION
------------------------------------------------------------------------------

Dipole Moment Calculation                       ... on
Quadrupole Moment Calculation                   ... off
Polarizability Calculation                      ... off
GBWName                                         ... hf_atom67.gbw
Electron density                                ... hf_atom67.scfp
The origin for moment calculation is the CENTER OF MASS  = ( 0.000000,  0.000000  0.000000)

-------------
DIPOLE MOMENT
-------------
                                X             Y             Z
Electronic contribution:      0.00000       0.00000      -0.00000
Nuclear contribution   :      0.00000       0.00000       0.00000
                        -----------------------------------------
Total Dipole Moment    :      0.00000       0.00000      -0.00000
                        -----------------------------------------
Magnitude (a.u.)       :      0.00000
Magnitude (Debye)      :      0.00000



--------------------
Rotational spectrum 
--------------------
 
Rotational constants in cm-1:     0.000000     0.000000     0.000000 
Rotational constants in MHz :     0.000000     0.000000     0.000000 

 Dipole components along the rotational axes: 
x,y,z [a.u.] :     0.000000     0.000000    -0.000000 
x,y,z [Debye]:     0.000000     0.000000    -0.000000 

 

Timings for individual modules:

Sum of individual times         ...        2.829 sec (=   0.047 min)
GTO integral calculation        ...        1.427 sec (=   0.024 min)  50.4 %
SCF iterations                  ...        1.402 sec (=   0.023 min)  49.6 %
                             ****ORCA TERMINATED NORMALLY****
TOTAL RUN TIME: 0 days 0 hours 0 minutes 3 seconds 72 msec
