
                                 *****************
                                 * O   R   C   A *
                                 *****************

                                            #,                                       
                                            ###                                      
                                            ####                                     
                                            #####                                    
                                            ######                                   
                                           ########,                                 
                                     ,,################,,,,,                         
                               ,,#################################,,                 
                          ,,##########################################,,             
                       ,#########################################, ''#####,          
                    ,#############################################,,   '####,        
                  ,##################################################,,,,####,       
                ,###########''''           ''''###############################       
              ,#####''   ,,,,##########,,,,          '''####'''          '####       
            ,##' ,,,,###########################,,,                        '##       
           ' ,,###''''                  '''############,,,                           
         ,,##''                                '''############,,,,        ,,,,,,###''
      ,#''                                            '''#######################'''  
     '                                                          ''''####''''         
             ,#######,   #######,   ,#######,      ##                                
            ,#'     '#,  ##    ##  ,#'     '#,    #''#        ######   ,####,        
            ##       ##  ##   ,#'  ##            #'  '#       #        #'  '#        
            ##       ##  #######   ##           ,######,      #####,   #    #        
            '#,     ,#'  ##    ##  '#,     ,#' ,#      #,         ##   #,  ,#        
             '#######'   ##     ##  '#######'  #'      '#     #####' # '####'        



                  #######################################################
                  #                        -***-                        #
                  #          Department of theory and spectroscopy      #
                  #    Directorship and core code : Frank Neese         #
                  #        Max Planck Institute fuer Kohlenforschung    #
                  #                Kaiser Wilhelm Platz 1               #
                  #                 D-45470 Muelheim/Ruhr               #
                  #                      Germany                        #
                  #                                                     #
                  #                  All rights reserved                #
                  #                        -***-                        #
                  #######################################################



                         Program Version 5.0.4 -  RELEASE  -

 With contributions from (in alphabetic order):
   Daniel Aravena         : Magnetic Suceptibility
   Michael Atanasov       : Ab Initio Ligand Field Theory (pilot matlab implementation)
   Alexander A. Auer      : GIAO ZORA, VPT2 properties, NMR spectrum
   Ute Becker             : Parallelization
   Giovanni Bistoni       : ED, misc. LED, open-shell LED, HFLD
   Martin Brehm           : Molecular dynamics
   Dmytro Bykov           : SCF Hessian
   Vijay G. Chilkuri      : MRCI spin determinant printing, contributions to CSF-ICE
   Dipayan Datta          : RHF DLPNO-CCSD density
   Achintya Kumar Dutta   : EOM-CC, STEOM-CC
   Dmitry Ganyushin       : Spin-Orbit,Spin-Spin,Magnetic field MRCI
   Miquel Garcia          : C-PCM and meta-GGA Hessian, CC/C-PCM, Gaussian charge scheme
   Yang Guo               : DLPNO-NEVPT2, F12-NEVPT2, CIM, IAO-localization
   Andreas Hansen         : Spin unrestricted coupled pair/coupled cluster methods
   Benjamin Helmich-Paris : MC-RPA, TRAH-SCF, COSX integrals
   Lee Huntington         : MR-EOM, pCC
   Robert Izsak           : Overlap fitted RIJCOSX, COSX-SCS-MP3, EOM
   Marcus Kettner         : VPT2
   Christian Kollmar      : KDIIS, OOCD, Brueckner-CCSD(T), CCSD density, CASPT2, CASPT2-K
   Simone Kossmann        : Meta GGA functionals, TD-DFT gradient, OOMP2, MP2 Hessian
   Martin Krupicka        : Initial AUTO-CI
   Lucas Lang             : DCDCAS
   Marvin Lechner         : AUTO-CI (C++ implementation), FIC-MRCC
   Dagmar Lenk            : GEPOL surface, SMD
   Dimitrios Liakos       : Extrapolation schemes; Compound Job, initial MDCI parallelization
   Dimitrios Manganas     : Further ROCIS development; embedding schemes
   Dimitrios Pantazis     : SARC Basis sets
   Anastasios Papadopoulos: AUTO-CI, single reference methods and gradients
   Taras Petrenko         : DFT Hessian,TD-DFT gradient, ASA, ECA, R-Raman, ABS, FL, XAS/XES, NRVS
   Peter Pinski           : DLPNO-MP2, DLPNO-MP2 Gradient
   Christoph Reimann      : Effective Core Potentials
   Marius Retegan         : Local ZFS, SOC
   Christoph Riplinger    : Optimizer, TS searches, QM/MM, DLPNO-CCSD(T), (RO)-DLPNO pert. Triples
   Tobias Risthaus        : Range-separated hybrids, TD-DFT gradient, RPA, STAB
   Michael Roemelt        : Original ROCIS implementation
   Masaaki Saitow         : Open-shell DLPNO-CCSD energy and density
   Barbara Sandhoefer     : DKH picture change effects
   Avijit Sen             : IP-ROCIS
   Kantharuban Sivalingam : CASSCF convergence, NEVPT2, FIC-MRCI
   Bernardo de Souza      : ESD, SOC TD-DFT
   Georgi Stoychev        : AutoAux, RI-MP2 NMR, DLPNO-MP2 response
   Willem Van den Heuvel  : Paramagnetic NMR
   Boris Wezisla          : Elementary symmetry handling
   Frank Wennmohs         : Technical directorship


 We gratefully acknowledge several colleagues who have allowed us to
 interface, adapt or use parts of their codes:
   Stefan Grimme, W. Hujo, H. Kruse, P. Pracht,  : VdW corrections, initial TS optimization,
                  C. Bannwarth, S. Ehlert          DFT functionals, gCP, sTDA/sTD-DF
   Ed Valeev, F. Pavosevic, A. Kumar             : LibInt (2-el integral package), F12 methods
   Garnet Chan, S. Sharma, J. Yang, R. Olivares  : DMRG
   Ulf Ekstrom                                   : XCFun DFT Library
   Mihaly Kallay                                 : mrcc  (arbitrary order and MRCC methods)
   Jiri Pittner, Ondrej Demel                    : Mk-CCSD
   Frank Weinhold                                : gennbo (NPA and NBO analysis)
   Christopher J. Cramer and Donald G. Truhlar   : smd solvation model
   Lars Goerigk                                  : TD-DFT with DH, B97 family of functionals
   V. Asgeirsson, H. Jonsson                     : NEB implementation
   FAccTs GmbH                                   : IRC, NEB, NEB-TS, DLPNO-Multilevel, CI-OPT
                                                   MM, QMMM, 2- and 3-layer-ONIOM, Crystal-QMMM,
                                                   LR-CPCM, SF, NACMEs, symmetry and pop. for TD-DFT,
                                                   nearIR, NL-DFT gradient (VV10), updates on ESD,
                                                   ML-optimized integration grids
   S Lehtola, MJT Oliveira, MAL Marques          : LibXC Library
   Liviu Ungur et al                             : ANISO software


 Your calculation uses the libint2 library for the computation of 2-el integrals
 For citations please refer to: http://libint.valeyev.net

 Your ORCA version has been built with support for libXC version: 5.1.0
 For citations please refer to: https://tddft.org/programs/libxc/

 This ORCA versions uses:
   CBLAS   interface :  Fast vector & matrix operations
   LAPACKE interface :  Fast linear algebra routines
   Shared memory     :  Shared parallel matrices


================================================================================

----- Orbital basis set information -----
Your calculation utilizes the basis: def2-TZVP
   F. Weigend and R. Ahlrichs, Phys. Chem. Chem. Phys. 7, 3297 (2005).

================================================================================
                                        WARNINGS
                       Please study these warnings very carefully!
================================================================================


INFO   : the flag for use of the SHARK integral package has been found!

================================================================================
                                       INPUT FILE
================================================================================
NAME = def2tzvp.inp
|  1> ! def2-tzvp HF 
|  2> %output 
|  3> Print [ P_Overlap ] 1 
|  4> Print [ P_MOs ] 1
|  5> end
|  6> * xyz 0 1
|  7> F 0.0 0.0 0.0
|  8> F 0.2 0.3 0.4
|  9> *
| 10> 
| 11>                          ****END OF INPUT****
================================================================================

                       ****************************
                       * Single Point Calculation *
                       ****************************

---------------------------------
CARTESIAN COORDINATES (ANGSTROEM)
---------------------------------
  F      0.000000    0.000000    0.000000
  F      0.200000    0.300000    0.400000

----------------------------
CARTESIAN COORDINATES (A.U.)
----------------------------
  NO LB      ZA    FRAG     MASS         X           Y           Z
   0 F     9.0000    0    18.998    0.000000    0.000000    0.000000
   1 F     9.0000    0    18.998    0.377945    0.566918    0.755890

--------------------------------
INTERNAL COORDINATES (ANGSTROEM)
--------------------------------
 F      0   0   0     0.000000000000     0.00000000     0.00000000
 F      1   0   0     0.538516480713     0.00000000     0.00000000

---------------------------
INTERNAL COORDINATES (A.U.)
---------------------------
 F      0   0   0     0.000000000000     0.00000000     0.00000000
 F      1   0   0     1.017648667152     0.00000000     0.00000000

---------------------
BASIS SET INFORMATION
---------------------
There are 1 groups of distinct atoms

 Group   1 Type F   : 11s6p2d1f contracted to 5s3p2d1f pattern {62111/411/11/1}

Atom   0F    basis set group =>   1
Atom   1F    basis set group =>   1
------------------------------------------------------------------------------
                           ORCA GTO INTEGRAL CALCULATION
------------------------------------------------------------------------------
------------------------------------------------------------------------------
                   ___                                                        
                  /   \      - P O W E R E D   B Y -                         
                 /     \                                                     
                 |  |  |   _    _      __       _____    __    __             
                 |  |  |  | |  | |    /  \     |  _  \  |  |  /  |          
                  \  \/   | |  | |   /    \    | | | |  |  | /  /          
                 / \  \   | |__| |  /  /\  \   | |_| |  |  |/  /          
                |  |  |   |  __  | /  /__\  \  |    /   |      \           
                |  |  |   | |  | | |   __   |  |    \   |  |\   \          
                \     /   | |  | | |  |  |  |  | |\  \  |  | \   \       
                 \___/    |_|  |_| |__|  |__|  |_| \__\ |__|  \__/        
                                                                              
                      - O R C A' S   B I G   F R I E N D -                    
                                      &                                       
                       - I N T E G R A L  F E E D E R -                       
                                                                              
 v1 FN, 2020, v2 2021                                                         
------------------------------------------------------------------------------


Reading SHARK input file def2tzvp.SHARKINP.tmp ... ok
----------------------
SHARK INTEGRAL PACKAGE
----------------------

Number of atoms                             ...      2
Number of basis functions                   ...     62
Number of shells                            ...     22
Maximum angular momentum                    ...      3
Integral batch strategy                     ... SHARK/LIBINT Hybrid
RI-J (if used) integral strategy            ... SPLIT-RIJ (Revised 2003 algorithm where possible)
Printlevel                                  ...      1
Contraction scheme used                     ... SEGMENTED contraction
Coulomb Range Separation                    ... NOT USED
Exchange Range Separation                   ... NOT USED
Finite Nucleus Model                        ... NOT USED
Auxiliary Coulomb fitting basis             ... NOT available
Auxiliary J/K fitting basis                 ... NOT available
Auxiliary Correlation fitting basis         ... NOT available
Auxiliary 'external' fitting basis          ... NOT available
Integral threshold                          ...     1.000000e-10
Primitive cut-off                           ...     1.000000e-11
Primitive pair pre-selection threshold      ...     1.000000e-11

Calculating pre-screening integrals         ... done (  0.0 sec) Dimension = 22
Organizing shell pair data                  ... done (  0.0 sec)
Shell pair information
Total number of shell pairs                 ...       253
Shell pairs after pre-screening             ...       253
Total number of primitive shell pairs       ...       864
Primitive shell pairs kept                  ...       820
          la=0 lb=0:     55 shell pairs
          la=1 lb=0:     60 shell pairs
          la=1 lb=1:     21 shell pairs
          la=2 lb=0:     40 shell pairs
          la=2 lb=1:     24 shell pairs
          la=2 lb=2:     10 shell pairs
          la=3 lb=0:     20 shell pairs
          la=3 lb=1:     12 shell pairs
          la=3 lb=2:      8 shell pairs
          la=3 lb=3:      3 shell pairs

Calculating one electron integrals          ... done (  0.0 sec)
Calculating Nuclear repulsion               ... done (  0.0 sec) ENN=     79.595249927194 Eh

SHARK setup successfully completed in   0.1 seconds

Maximum memory used throughout the entire GTOINT-calculation: 12.6 MB
-------------------------------------------------------------------------------
                                 ORCA SCF
-------------------------------------------------------------------------------

------------
SCF SETTINGS
------------
Hamiltonian:
 Ab initio Hamiltonian  Method          .... Hartree-Fock(GTOs)


General Settings:
 Integral files         IntName         .... def2tzvp
 Hartree-Fock type      HFTyp           .... RHF
 Total Charge           Charge          ....    0
 Multiplicity           Mult            ....    1
 Number of Electrons    NEL             ....   18
 Basis Dimension        Dim             ....   62
 Nuclear Repulsion      ENuc            ....     79.5952499272 Eh

Convergence Acceleration:
 DIIS                   CNVDIIS         .... on
   Start iteration      DIISMaxIt       ....    12
   Startup error        DIISStart       ....  0.200000
   # of expansion vecs  DIISMaxEq       ....     5
   Bias factor          DIISBfac        ....   1.050
   Max. coefficient     DIISMaxC        ....  10.000
 Trust-Rad. Augm. Hess. CNVTRAH         .... auto
   Auto Start mean grad. ratio tolernc. ....  1.125000
   Auto Start start iteration           ....    20
   Auto Start num. interpolation iter.  ....    10
   Max. Number of Micro iterations      ....    16
   Max. Number of Macro iterations      .... Maxiter - #DIIS iter
   Number of Davidson start vectors     ....     2
   Converg. threshold I  (grad. norm)   ....   5.000e-05
   Converg. threshold II (energy diff.) ....   1.000e-06
   Grad. Scal. Fac. for Micro threshold ....   0.100
   Minimum threshold for Micro iter.    ....   0.010
   NR start threshold (gradient norm)   ....   0.001
   Initial trust radius                 ....   0.400
   Minimum AH scaling param. (alpha)    ....   1.000
   Maximum AH scaling param. (alpha)    .... 1000.000
   Orbital update algorithm             .... Taylor
   White noise on init. David. guess    .... on
   Maximum white noise                  ....   0.010
   Quad. conv. algorithm                .... NR
 SOSCF                  CNVSOSCF        .... on
   Start iteration      SOSCFMaxIt      ....   150
   Startup grad/error   SOSCFStart      ....  0.003300
 Level Shifting         CNVShift        .... on
   Level shift para.    LevelShift      ....    0.2500
   Turn off err/grad.   ShiftErr        ....    0.0010
 Zerner damping         CNVZerner       .... off
 Static damping         CNVDamp         .... on
   Fraction old density DampFac         ....    0.7000
   Max. Damping (<1)    DampMax         ....    0.9800
   Min. Damping (>=0)   DampMin         ....    0.0000
   Turn off err/grad.   DampErr         ....    0.1000
 Fernandez-Rico         CNVRico         .... off

SCF Procedure:
 Maximum # iterations   MaxIter         ....   125
 SCF integral mode      SCFMode         .... Direct
   Integral package                     .... SHARK and LIBINT hybrid scheme
 Reset frequency        DirectResetFreq ....    20
 Integral Threshold     Thresh          ....  1.000e-10 Eh
 Primitive CutOff       TCut            ....  1.000e-11 Eh

Convergence Tolerance:
 Convergence Check Mode ConvCheckMode   .... Total+1el-Energy
 Convergence forced     ConvForced      .... 0
 Energy Change          TolE            ....  1.000e-06 Eh
 1-El. energy change                    ....  1.000e-03 Eh
 Orbital Gradient       TolG            ....  5.000e-05
 Orbital Rotation angle TolX            ....  5.000e-05
 DIIS Error             TolErr          ....  1.000e-06


Diagonalization of the overlap matrix:
Smallest eigenvalue                        ... 4.369e-05
Time for diagonalization                   ...    0.002 sec
Threshold for overlap eigenvalues          ... 1.000e-08
Number of eigenvalues below threshold      ... 0
Time for construction of square roots      ...    0.003 sec
Total time needed                          ...    0.005 sec

--------------
OVERLAP MATRIX
--------------
                  0          1          2          3          4          5    
      0       1.000000   0.680163   0.193167   0.099381   0.049865   0.000000
      1       0.680163   1.000000   0.550058   0.314729   0.165565   0.000000
      2       0.193167   0.550058   1.000000   0.856388   0.564114   0.000000
      3       0.099381   0.314729   0.856388   1.000000   0.853530   0.000000
      4       0.049865   0.165565   0.564114   0.853530   1.000000   0.000000
      5       0.000000   0.000000   0.000000   0.000000   0.000000   1.000000
      6       0.000000   0.000000   0.000000   0.000000   0.000000   0.000000
      7       0.000000   0.000000   0.000000   0.000000   0.000000   0.000000
      8       0.000000   0.000000   0.000000   0.000000   0.000000   0.600837
      9       0.000000   0.000000   0.000000   0.000000   0.000000   0.000000
     10       0.000000   0.000000   0.000000   0.000000   0.000000   0.000000
     11       0.000000   0.000000   0.000000   0.000000   0.000000   0.224991
     12       0.000000   0.000000   0.000000   0.000000   0.000000   0.000000
     13       0.000000   0.000000   0.000000   0.000000   0.000000   0.000000
     14       0.000000   0.000000   0.000000   0.000000   0.000000   0.000000
     15       0.000000   0.000000   0.000000   0.000000   0.000000   0.000000
     16       0.000000   0.000000   0.000000   0.000000   0.000000   0.000000
     17      -0.000000  -0.000000  -0.000000  -0.000000  -0.000000   0.000000
     18       0.000000   0.000000   0.000000   0.000000   0.000000   0.000000
     19      -0.000000  -0.000000   0.000000   0.000000   0.000000   0.000000
     20       0.000000   0.000000   0.000000   0.000000   0.000000   0.000000
     21       0.000000   0.000000   0.000000   0.000000   0.000000   0.000000
     22      -0.000000  -0.000000  -0.000000  -0.000000  -0.000000   0.000000
     23       0.000000   0.000000   0.000000   0.000000   0.000000   0.000000
     24       0.000000   0.000000   0.000000   0.000000   0.000000   0.000000
     25       0.000000   0.000000   0.000000   0.000000   0.000000   0.000000
     26       0.000000   0.000000   0.000000   0.000000   0.000000   0.000000
     27       0.000000   0.000000   0.000000   0.000000   0.000000  -0.000000
     28       0.000000   0.000000   0.000000   0.000000   0.000000   0.000000
     29       0.000000   0.000000   0.000000   0.000000   0.000000   0.000000
     30       0.000000   0.000000   0.000000   0.000000   0.000000   0.000000
     31       0.000000   0.000540   0.041083   0.053151   0.038930   0.048848
     32       0.000540   0.009287   0.139728   0.173789   0.129937   0.159130
     33       0.041083   0.139728   0.449547   0.543870   0.454832   0.321521
     34       0.053151   0.173789   0.543870   0.728318   0.713854   0.202990
     35       0.038930   0.129937   0.454832   0.713854   0.883011   0.074040
     36      -0.048848  -0.159130  -0.321521  -0.202990  -0.074040  -0.087603
     37      -0.024424  -0.079565  -0.160760  -0.101495  -0.037020  -0.174582
     38      -0.036636  -0.119347  -0.241141  -0.152242  -0.055530  -0.261872
     39      -0.065318  -0.201463  -0.468421  -0.423618  -0.225178   0.144974
     40      -0.032659  -0.100731  -0.234211  -0.211809  -0.112589  -0.103627
     41      -0.048988  -0.151097  -0.351316  -0.317714  -0.168884  -0.155441
     42      -0.025852  -0.084816  -0.269783  -0.362661  -0.328188   0.142257
     43      -0.012926  -0.042408  -0.134891  -0.181331  -0.164094  -0.020629
     44      -0.019389  -0.063612  -0.202337  -0.271996  -0.246141  -0.030944
     45       0.032573   0.092102   0.084265   0.024807   0.003693  -0.156842
     46       0.047510   0.134337   0.122906   0.036182   0.005387   0.081937
     47       0.071266   0.201505   0.184358   0.054273   0.008080   0.122905
     48      -0.014847  -0.041980  -0.038408  -0.011307  -0.001683  -0.066601
     49       0.035633   0.100752   0.092179   0.027137   0.004040   0.159842
     50       0.034305   0.097127   0.147127   0.078945   0.019989  -0.339102
     51       0.050037   0.141667   0.214594   0.115146   0.029155  -0.053237
     52       0.075055   0.212500   0.321892   0.172719   0.043732  -0.079856
     53      -0.015636  -0.044271  -0.067061  -0.035983  -0.009111  -0.041599
     54       0.037528   0.106250   0.160946   0.086360   0.021866   0.099838
     55       0.015317   0.035129   0.018803   0.003602   0.000286   0.227769
     56      -0.068338  -0.156732  -0.083889  -0.016073  -0.001278   0.131170
     57      -0.102507  -0.235098  -0.125833  -0.024109  -0.001916   0.196754
     58       0.042373   0.097182   0.052016   0.009966   0.000792   0.019500
     59      -0.101696  -0.233238  -0.124838  -0.023918  -0.001901  -0.046799
     60      -0.039787  -0.091251  -0.048841  -0.009358  -0.000744  -0.081018
     61       0.007784   0.017854   0.009556   0.001831   0.000146   0.015851
                  6          7          8          9         10         11    
      0       0.000000   0.000000   0.000000   0.000000   0.000000   0.000000
      1       0.000000   0.000000   0.000000   0.000000   0.000000   0.000000
      2       0.000000   0.000000   0.000000   0.000000   0.000000   0.000000
      3       0.000000   0.000000   0.000000   0.000000   0.000000   0.000000
      4       0.000000   0.000000   0.000000   0.000000   0.000000   0.000000
      5       0.000000   0.000000   0.600837   0.000000   0.000000   0.224991
      6       1.000000   0.000000   0.000000   0.600837   0.000000   0.000000
      7       0.000000   1.000000   0.000000   0.000000   0.600837   0.000000
      8       0.000000   0.000000   1.000000   0.000000   0.000000   0.684596
      9       0.600837   0.000000   0.000000   1.000000   0.000000   0.000000
     10       0.000000   0.600837   0.000000   0.000000   1.000000   0.000000
     11       0.000000   0.000000   0.684596   0.000000   0.000000   1.000000
     12       0.224991   0.000000   0.000000   0.684596   0.000000   0.000000
     13       0.000000   0.224991   0.000000   0.000000   0.684596   0.000000
     14       0.000000   0.000000   0.000000   0.000000   0.000000   0.000000
     15       0.000000   0.000000   0.000000   0.000000   0.000000   0.000000
     16       0.000000   0.000000   0.000000   0.000000   0.000000   0.000000
     17       0.000000   0.000000   0.000000   0.000000   0.000000   0.000000
     18       0.000000   0.000000   0.000000   0.000000   0.000000   0.000000
     19       0.000000   0.000000   0.000000   0.000000   0.000000   0.000000
     20       0.000000   0.000000   0.000000   0.000000   0.000000   0.000000
     21       0.000000   0.000000   0.000000   0.000000   0.000000   0.000000
     22       0.000000   0.000000   0.000000   0.000000   0.000000   0.000000
     23       0.000000   0.000000   0.000000   0.000000   0.000000   0.000000
     24       0.000000   0.000000   0.000000   0.000000   0.000000   0.000000
     25       0.000000   0.000000   0.000000   0.000000   0.000000   0.000000
     26       0.000000   0.000000   0.000000   0.000000   0.000000   0.000000
     27       0.000000   0.000000  -0.000000   0.000000   0.000000  -0.000000
     28       0.000000   0.000000   0.000000   0.000000   0.000000   0.000000
     29       0.000000   0.000000   0.000000   0.000000   0.000000   0.000000
     30       0.000000   0.000000   0.000000   0.000000  -0.000000   0.000000
     31       0.024424   0.036636   0.065318   0.032659   0.048988   0.025852
     32       0.079565   0.119347   0.201463   0.100731   0.151097   0.084816
     33       0.160760   0.241141   0.468421   0.234211   0.351316   0.269783
     34       0.101495   0.152242   0.423618   0.211809   0.317714   0.362661
     35       0.037020   0.055530   0.225178   0.112589   0.168884   0.328188
     36      -0.174582  -0.261872   0.144974  -0.103627  -0.155441   0.142257
     37       0.174270  -0.130936  -0.103627   0.300415  -0.077720  -0.020629
     38      -0.130936   0.065156  -0.155441  -0.077720   0.235648  -0.030944
     39      -0.103627  -0.155441   0.436446  -0.135259  -0.202889   0.469842
     40       0.300415  -0.077720  -0.135259   0.639335  -0.101444  -0.054024
     41      -0.077720   0.235648  -0.202889  -0.101444   0.554798  -0.081037
     42      -0.020629  -0.030944   0.469842  -0.054024  -0.081037   0.783356
     43       0.173201  -0.015472  -0.054024   0.550879  -0.040518  -0.055295
     44      -0.015472   0.160308  -0.081037  -0.040518   0.517114  -0.082942
     45       0.148799   0.223198  -0.127884   0.054019   0.081028  -0.025909
     46      -0.155810   0.159842  -0.025227  -0.114770   0.032158  -0.009260
     47       0.159842  -0.022608  -0.037840   0.032158  -0.087971  -0.013890
     48      -0.164486   0.146828  -0.013399  -0.074804   0.092107  -0.000871
     49      -0.116857  -0.011304   0.032158  -0.086078  -0.043986   0.002090
     50       0.153225   0.229837  -0.411593   0.147970   0.221954  -0.148385
     51      -0.306151   0.099838  -0.116594  -0.364668   0.065740  -0.054778
     52       0.099838  -0.222952  -0.174891   0.065740  -0.309885  -0.082167
     53      -0.207154   0.248333  -0.027392  -0.217943   0.285827  -0.004211
     54      -0.229613  -0.111476   0.065740  -0.273501  -0.154942   0.010106
     55      -0.149945  -0.224918   0.062074  -0.046848  -0.070272   0.004940
     56       0.112047  -0.155053   0.061769   0.044601  -0.028488   0.006027
     57      -0.155053  -0.017164   0.092653  -0.028488   0.020860   0.009040
     58       0.256853  -0.255854  -0.008534   0.068680  -0.086248  -0.001271
     59       0.217026   0.058399   0.020481   0.081216   0.042962   0.003049
     60       0.041285   0.135542  -0.010499   0.018897   0.050077  -0.000341
     61      -0.188381   0.093683   0.002054  -0.056924   0.025687   0.000067
                 12         13         14         15         16         17    
      0       0.000000   0.000000   0.000000   0.000000   0.000000  -0.000000
      1       0.000000   0.000000   0.000000   0.000000   0.000000  -0.000000
      2       0.000000   0.000000   0.000000   0.000000   0.000000  -0.000000
      3       0.000000   0.000000   0.000000   0.000000   0.000000  -0.000000
      4       0.000000   0.000000   0.000000   0.000000   0.000000  -0.000000
      5       0.000000   0.000000   0.000000   0.000000   0.000000   0.000000
      6       0.224991   0.000000   0.000000   0.000000   0.000000   0.000000
      7       0.000000   0.224991   0.000000   0.000000   0.000000   0.000000
      8       0.000000   0.000000   0.000000   0.000000   0.000000   0.000000
      9       0.684596   0.000000   0.000000   0.000000   0.000000   0.000000
     10       0.000000   0.684596   0.000000   0.000000   0.000000   0.000000
     11       0.000000   0.000000   0.000000   0.000000   0.000000   0.000000
     12       1.000000   0.000000   0.000000   0.000000   0.000000   0.000000
     13       0.000000   1.000000   0.000000   0.000000   0.000000   0.000000
     14       0.000000   0.000000   1.000000   0.000000   0.000000   0.000000
     15       0.000000   0.000000   0.000000   1.000000   0.000000   0.000000
     16       0.000000   0.000000   0.000000   0.000000   1.000000   0.000000
     17       0.000000   0.000000   0.000000   0.000000   0.000000   1.000000
     18       0.000000   0.000000   0.000000   0.000000   0.000000   0.000000
     19       0.000000   0.000000   0.505175   0.000000   0.000000  -0.000000
     20       0.000000   0.000000   0.000000   0.505175   0.000000   0.000000
     21       0.000000   0.000000   0.000000   0.000000   0.505175   0.000000
     22       0.000000   0.000000   0.000000   0.000000   0.000000   0.505175
     23       0.000000   0.000000   0.000000   0.000000   0.000000   0.000000
     24       0.000000   0.000000   0.000000   0.000000   0.000000   0.000000
     25      -0.000000   0.000000   0.000000   0.000000   0.000000   0.000000
     26       0.000000  -0.000000   0.000000   0.000000   0.000000   0.000000
     27       0.000000   0.000000   0.000000   0.000000   0.000000   0.000000
     28       0.000000   0.000000   0.000000   0.000000   0.000000   0.000000
     29      -0.000000   0.000000   0.000000   0.000000   0.000000   0.000000
     30       0.000000   0.000000   0.000000   0.000000   0.000000   0.000000
     31       0.012926   0.019389   0.032573   0.047510   0.071266  -0.014847
     32       0.042408   0.063612   0.092102   0.134337   0.201505  -0.041980
     33       0.134891   0.202337   0.084265   0.122906   0.184358  -0.038408
     34       0.181331   0.271996   0.024807   0.036182   0.054273  -0.011307
     35       0.164094   0.246141   0.003693   0.005387   0.008080  -0.001683
     36      -0.020629  -0.030944   0.156842  -0.081937  -0.122905   0.066601
     37       0.173201  -0.015472  -0.148799   0.155810  -0.159842   0.164486
     38      -0.015472   0.160308  -0.223198  -0.159842   0.022608  -0.146828
     39      -0.054024  -0.081037   0.127884   0.025227   0.037840   0.013399
     40       0.550879  -0.040518  -0.054019   0.114770  -0.032158   0.074804
     41      -0.040518   0.517114  -0.081028  -0.032158   0.087971  -0.092107
     42      -0.055295  -0.082942   0.025909   0.009260   0.013890   0.000871
     43       0.866297  -0.041471  -0.007910   0.022699  -0.002090   0.012481
     44      -0.041471   0.831738  -0.011865  -0.002090   0.020958  -0.017416
     45       0.007910   0.011865  -0.295673   0.005544   0.008315  -0.097880
     46      -0.022699   0.002090   0.005544  -0.086290   0.103283  -0.226908
     47       0.002090  -0.020958   0.008315   0.103283  -0.000221   0.192543
     48      -0.012481   0.017416  -0.097880  -0.226908   0.192543  -0.073135
     49      -0.017024  -0.010479   0.234912  -0.148198  -0.000253  -0.036955
     50       0.044025   0.066037  -0.040395  -0.030415  -0.045622  -0.042808
     51      -0.129768   0.010106  -0.030415   0.047685  -0.016947  -0.108219
     52       0.010106  -0.121346  -0.045622  -0.016947   0.033563   0.127616
     53      -0.070358   0.099221  -0.042808  -0.108219   0.127616   0.098843
     54      -0.097326  -0.060673   0.102738  -0.117203  -0.054994  -0.008678
     55      -0.003984  -0.005976  -0.032348   0.077457   0.116185   0.106854
     56       0.004150  -0.001679   0.063922  -0.168668   0.046304   0.218931
     57      -0.001679   0.002751   0.095884   0.046304  -0.130081  -0.185250
     58       0.005409  -0.007569   0.033697   0.073671  -0.071895   0.019172
     59       0.007406   0.004574  -0.080873   0.060312   0.014467   0.036862
     60       0.001830   0.004546  -0.149645   0.042715   0.144052   0.108801
     61      -0.004769   0.002051   0.029278  -0.204247   0.102409   0.138747
                 18         19         20         21         22         23    
      0       0.000000  -0.000000   0.000000   0.000000  -0.000000   0.000000
      1       0.000000  -0.000000   0.000000   0.000000  -0.000000   0.000000
      2       0.000000   0.000000   0.000000   0.000000  -0.000000   0.000000
      3       0.000000   0.000000   0.000000   0.000000  -0.000000   0.000000
      4       0.000000   0.000000   0.000000   0.000000  -0.000000   0.000000
      5       0.000000   0.000000   0.000000   0.000000   0.000000   0.000000
      6       0.000000   0.000000   0.000000   0.000000   0.000000   0.000000
      7       0.000000   0.000000   0.000000   0.000000   0.000000   0.000000
      8       0.000000   0.000000   0.000000   0.000000   0.000000   0.000000
      9       0.000000   0.000000   0.000000   0.000000   0.000000   0.000000
     10       0.000000   0.000000   0.000000   0.000000   0.000000   0.000000
     11       0.000000   0.000000   0.000000   0.000000   0.000000   0.000000
     12       0.000000   0.000000   0.000000   0.000000   0.000000   0.000000
     13       0.000000   0.000000   0.000000   0.000000   0.000000   0.000000
     14       0.000000   0.505175   0.000000   0.000000   0.000000   0.000000
     15       0.000000   0.000000   0.505175   0.000000   0.000000   0.000000
     16       0.000000   0.000000   0.000000   0.505175   0.000000   0.000000
     17       0.000000  -0.000000   0.000000   0.000000   0.505175   0.000000
     18       1.000000   0.000000   0.000000   0.000000   0.000000   0.505175
     19       0.000000   1.000000   0.000000   0.000000   0.000000   0.000000
     20       0.000000   0.000000   1.000000   0.000000   0.000000   0.000000
     21       0.000000   0.000000   0.000000   1.000000   0.000000   0.000000
     22       0.000000   0.000000   0.000000   0.000000   1.000000   0.000000
     23       0.505175   0.000000   0.000000   0.000000   0.000000   1.000000
     24       0.000000   0.000000   0.000000   0.000000   0.000000   0.000000
     25       0.000000   0.000000   0.000000   0.000000   0.000000   0.000000
     26       0.000000   0.000000   0.000000   0.000000   0.000000   0.000000
     27       0.000000   0.000000   0.000000   0.000000   0.000000   0.000000
     28       0.000000   0.000000   0.000000   0.000000   0.000000   0.000000
     29       0.000000   0.000000   0.000000   0.000000   0.000000   0.000000
     30       0.000000   0.000000   0.000000   0.000000   0.000000   0.000000
     31       0.035633   0.034305   0.050037   0.075055  -0.015636   0.037528
     32       0.100752   0.097127   0.141667   0.212500  -0.044271   0.106250
     33       0.092179   0.147127   0.214594   0.321892  -0.067061   0.160946
     34       0.027137   0.078945   0.115146   0.172719  -0.035983   0.086360
     35       0.004040   0.019989   0.029155   0.043732  -0.009111   0.021866
     36      -0.159842   0.339102   0.053237   0.079856   0.041599  -0.099838
     37       0.116857  -0.153225   0.306151  -0.099838   0.207154   0.229613
     38       0.011304  -0.229837  -0.099838   0.222952  -0.248333   0.111476
     39      -0.032158   0.411593   0.116594   0.174891   0.027392  -0.065740
     40       0.086078  -0.147970   0.364668  -0.065740   0.217943   0.273501
     41       0.043986  -0.221954  -0.065740   0.309885  -0.285827   0.154942
     42      -0.002090   0.148385   0.054778   0.082167   0.004211  -0.010106
     43       0.017024  -0.044025   0.129768  -0.010106   0.070358   0.097326
     44       0.010479  -0.066037  -0.010106   0.121346  -0.099221   0.060673
     45       0.234912  -0.040395  -0.030415  -0.045622  -0.042808   0.102738
     46      -0.148198  -0.030415   0.047685  -0.016947  -0.108219  -0.117203
     47      -0.000253  -0.045622  -0.016947   0.033563   0.127616  -0.054994
     48      -0.036955  -0.042808  -0.108219   0.127616   0.098843  -0.008678
     49       0.000158   0.102738  -0.117203  -0.054994  -0.008678   0.116054
     50       0.102738   0.156958  -0.064305  -0.096457  -0.064821   0.155571
     51      -0.117203  -0.064305   0.288393  -0.060183  -0.168860  -0.206587
     52      -0.054994  -0.096457  -0.060183   0.238241   0.217365  -0.113774
     53      -0.008678  -0.064821  -0.168860   0.217365   0.391089  -0.008981
     54       0.116054   0.155571  -0.206587  -0.113774  -0.008981   0.408902
     55      -0.256451  -0.193107   0.077905   0.116858   0.042289  -0.101495
     56       0.142306  -0.037617  -0.217812   0.040849   0.100667   0.097899
     57      -0.000560  -0.056425   0.040849  -0.183771  -0.110154   0.038035
     58       0.036862   0.006483  -0.047525   0.057673  -0.122513   0.007091
     59      -0.053938  -0.015558  -0.053588  -0.026649   0.007091  -0.136578
     60      -0.176181  -0.051604   0.025399   0.068948   0.120549  -0.183321
     61       0.101151   0.010096  -0.080528   0.036883   0.176119   0.119077
                 24         25         26         27         28         29    
      0       0.000000   0.000000   0.000000   0.000000   0.000000   0.000000
      1       0.000000   0.000000   0.000000   0.000000   0.000000   0.000000
      2       0.000000   0.000000   0.000000   0.000000   0.000000   0.000000
      3       0.000000   0.000000   0.000000   0.000000   0.000000   0.000000
      4       0.000000   0.000000   0.000000   0.000000   0.000000   0.000000
      5       0.000000   0.000000   0.000000  -0.000000   0.000000   0.000000
      6       0.000000   0.000000   0.000000   0.000000   0.000000   0.000000
      7       0.000000   0.000000   0.000000   0.000000   0.000000   0.000000
      8       0.000000   0.000000   0.000000  -0.000000   0.000000   0.000000
      9       0.000000   0.000000   0.000000   0.000000   0.000000   0.000000
     10       0.000000   0.000000   0.000000   0.000000   0.000000   0.000000
     11       0.000000   0.000000   0.000000  -0.000000   0.000000   0.000000
     12       0.000000  -0.000000   0.000000   0.000000   0.000000  -0.000000
     13       0.000000   0.000000  -0.000000   0.000000   0.000000   0.000000
     14       0.000000   0.000000   0.000000   0.000000   0.000000   0.000000
     15       0.000000   0.000000   0.000000   0.000000   0.000000   0.000000
     16       0.000000   0.000000   0.000000   0.000000   0.000000   0.000000
     17       0.000000   0.000000   0.000000   0.000000   0.000000   0.000000
     18       0.000000   0.000000   0.000000   0.000000   0.000000   0.000000
     19       0.000000   0.000000   0.000000   0.000000   0.000000   0.000000
     20       0.000000   0.000000   0.000000   0.000000   0.000000   0.000000
     21       0.000000   0.000000   0.000000   0.000000   0.000000   0.000000
     22       0.000000   0.000000   0.000000   0.000000   0.000000   0.000000
     23       0.000000   0.000000   0.000000   0.000000   0.000000   0.000000
     24       1.000000   0.000000   0.000000   0.000000   0.000000   0.000000
     25       0.000000   1.000000   0.000000   0.000000   0.000000   0.000000
     26       0.000000   0.000000   1.000000   0.000000   0.000000   0.000000
     27       0.000000   0.000000   0.000000   1.000000   0.000000   0.000000
     28       0.000000   0.000000   0.000000   0.000000   1.000000   0.000000
     29       0.000000   0.000000   0.000000   0.000000   0.000000   1.000000
     30       0.000000   0.000000   0.000000   0.000000   0.000000   0.000000
     31      -0.015317   0.068338   0.102507  -0.042373   0.101696   0.039787
     32      -0.035129   0.156732   0.235098  -0.097182   0.233238   0.091251
     33      -0.018803   0.083889   0.125833  -0.052016   0.124838   0.048841
     34      -0.003602   0.016073   0.024109  -0.009966   0.023918   0.009358
     35      -0.000286   0.001278   0.001916  -0.000792   0.001901   0.000744
     36       0.227769   0.131170   0.196754   0.019500  -0.046799  -0.081018
     37      -0.149945   0.112047  -0.155053   0.256853   0.217026   0.041285
     38      -0.224918  -0.155053  -0.017164  -0.255854   0.058399   0.135542
     39       0.062074   0.061769   0.092653  -0.008534   0.020481  -0.010499
     40      -0.046848   0.044601  -0.028488   0.068680   0.081216   0.018897
     41      -0.070272  -0.028488   0.020860  -0.086248   0.042962   0.050077
     42       0.004940   0.006027   0.009040  -0.001271   0.003049  -0.000341
     43      -0.003984   0.004150  -0.001679   0.005409   0.007406   0.001830
     44      -0.005976  -0.001679   0.002751  -0.007569   0.004574   0.004546
     45       0.032348  -0.063922  -0.095884  -0.033697   0.080873   0.149645
     46      -0.077457   0.168668  -0.046304  -0.073671  -0.060312  -0.042715
     47      -0.116185  -0.046304   0.130081   0.071895  -0.014467  -0.144052
     48      -0.106854  -0.218931   0.185250  -0.019172  -0.036862  -0.108801
     49       0.256451  -0.142306   0.000560  -0.036862   0.053938   0.176181
     50       0.193107   0.037617   0.056425  -0.006483   0.015558   0.051604
     51      -0.077905   0.217812  -0.040849   0.047525   0.053588  -0.025399
     52      -0.116858  -0.040849   0.183771  -0.057673   0.026649  -0.068948
     53      -0.042289  -0.100667   0.110154   0.122513  -0.007091  -0.120549
     54       0.101495  -0.097899  -0.038035  -0.007091   0.136578   0.183321
     55      -0.248709  -0.005713  -0.008570  -0.026883   0.064519  -0.147549
     56      -0.005713  -0.200181  -0.001882  -0.083300  -0.114055   0.043064
     57      -0.008570  -0.001882  -0.201750   0.116569  -0.070449   0.147406
     58      -0.026883  -0.083300   0.116569  -0.004922   0.002483   0.149131
     59       0.064519  -0.114055  -0.070449   0.002483  -0.009847  -0.233744
     60      -0.147549   0.043064   0.147406   0.149131  -0.233744  -0.024535
     61       0.028868  -0.211250   0.106376   0.204767   0.143209   0.002051
                 30         31         32         33         34         35    
      0       0.000000   0.000000   0.000540   0.041083   0.053151   0.038930
      1       0.000000   0.000540   0.009287   0.139728   0.173789   0.129937
      2       0.000000   0.041083   0.139728   0.449547   0.543870   0.454832
      3       0.000000   0.053151   0.173789   0.543870   0.728318   0.713854
      4       0.000000   0.038930   0.129937   0.454832   0.713854   0.883011
      5       0.000000   0.048848   0.159130   0.321521   0.202990   0.074040
      6       0.000000   0.024424   0.079565   0.160760   0.101495   0.037020
      7       0.000000   0.036636   0.119347   0.241141   0.152242   0.055530
      8       0.000000   0.065318   0.201463   0.468421   0.423618   0.225178
      9       0.000000   0.032659   0.100731   0.234211   0.211809   0.112589
     10      -0.000000   0.048988   0.151097   0.351316   0.317714   0.168884
     11       0.000000   0.025852   0.084816   0.269783   0.362661   0.328188
     12       0.000000   0.012926   0.042408   0.134891   0.181331   0.164094
     13       0.000000   0.019389   0.063612   0.202337   0.271996   0.246141
     14       0.000000   0.032573   0.092102   0.084265   0.024807   0.003693
     15       0.000000   0.047510   0.134337   0.122906   0.036182   0.005387
     16       0.000000   0.071266   0.201505   0.184358   0.054273   0.008080
     17       0.000000  -0.014847  -0.041980  -0.038408  -0.011307  -0.001683
     18       0.000000   0.035633   0.100752   0.092179   0.027137   0.004040
     19       0.000000   0.034305   0.097127   0.147127   0.078945   0.019989
     20       0.000000   0.050037   0.141667   0.214594   0.115146   0.029155
     21       0.000000   0.075055   0.212500   0.321892   0.172719   0.043732
     22       0.000000  -0.015636  -0.044271  -0.067061  -0.035983  -0.009111
     23       0.000000   0.037528   0.106250   0.160946   0.086360   0.021866
     24       0.000000  -0.015317  -0.035129  -0.018803  -0.003602  -0.000286
     25       0.000000   0.068338   0.156732   0.083889   0.016073   0.001278
     26       0.000000   0.102507   0.235098   0.125833   0.024109   0.001916
     27       0.000000  -0.042373  -0.097182  -0.052016  -0.009966  -0.000792
     28       0.000000   0.101696   0.233238   0.124838   0.023918   0.001901
     29       0.000000   0.039787   0.091251   0.048841   0.009358   0.000744
     30       1.000000  -0.007784  -0.017854  -0.009556  -0.001831  -0.000146
     31      -0.007784   1.000000   0.680163   0.193167   0.099381   0.049865
     32      -0.017854   0.680163   1.000000   0.550058   0.314729   0.165565
     33      -0.009556   0.193167   0.550058   1.000000   0.856388   0.564114
     34      -0.001831   0.099381   0.314729   0.856388   1.000000   0.853530
     35      -0.000146   0.049865   0.165565   0.564114   0.853530   1.000000
     36       0.015851   0.000000  -0.000000   0.000000  -0.000000  -0.000000
     37      -0.188381   0.000000  -0.000000   0.000000  -0.000000  -0.000000
     38       0.093683  -0.000000  -0.000000  -0.000000  -0.000000   0.000000
     39       0.002054  -0.000000   0.000000   0.000000  -0.000000   0.000000
     40      -0.056924  -0.000000   0.000000   0.000000  -0.000000   0.000000
     41       0.025687  -0.000000   0.000000   0.000000   0.000000   0.000000
     42       0.000067  -0.000000  -0.000000  -0.000000   0.000000   0.000000
     43      -0.004769  -0.000000  -0.000000  -0.000000   0.000000   0.000000
     44       0.002051  -0.000000  -0.000000   0.000000   0.000000   0.000000
     45      -0.029278   0.000000   0.000000   0.000000   0.000000   0.000000
     46       0.204247   0.000000   0.000000   0.000000   0.000000   0.000000
     47      -0.102409   0.000000   0.000000   0.000000   0.000000   0.000000
     48      -0.138747  -0.000000  -0.000000  -0.000000  -0.000000  -0.000000
     49      -0.101151   0.000000   0.000000   0.000000   0.000000   0.000000
     50      -0.010096  -0.000000  -0.000000   0.000000   0.000000   0.000000
     51       0.080528   0.000000   0.000000   0.000000   0.000000   0.000000
     52      -0.036883   0.000000   0.000000   0.000000   0.000000   0.000000
     53      -0.176119  -0.000000  -0.000000  -0.000000  -0.000000  -0.000000
     54      -0.119077   0.000000   0.000000   0.000000   0.000000   0.000000
     55       0.028868  -0.000000   0.000000   0.000000   0.000000  -0.000000
     56      -0.211250   0.000000  -0.000000  -0.000000   0.000000   0.000000
     57       0.106376   0.000000  -0.000000   0.000000   0.000000   0.000000
     58       0.204767   0.000000  -0.000000  -0.000000   0.000000   0.000000
     59       0.143209  -0.000000   0.000000   0.000000   0.000000  -0.000000
     60       0.002051   0.000000   0.000000  -0.000000   0.000000   0.000000
     61      -0.014453  -0.000000  -0.000000   0.000000   0.000000  -0.000000
                 36         37         38         39         40         41    
      0      -0.048848  -0.024424  -0.036636  -0.065318  -0.032659  -0.048988
      1      -0.159130  -0.079565  -0.119347  -0.201463  -0.100731  -0.151097
      2      -0.321521  -0.160760  -0.241141  -0.468421  -0.234211  -0.351316
      3      -0.202990  -0.101495  -0.152242  -0.423618  -0.211809  -0.317714
      4      -0.074040  -0.037020  -0.055530  -0.225178  -0.112589  -0.168884
      5      -0.087603  -0.174582  -0.261872   0.144974  -0.103627  -0.155441
      6      -0.174582   0.174270  -0.130936  -0.103627   0.300415  -0.077720
      7      -0.261872  -0.130936   0.065156  -0.155441  -0.077720   0.235648
      8       0.144974  -0.103627  -0.155441   0.436446  -0.135259  -0.202889
      9      -0.103627   0.300415  -0.077720  -0.135259   0.639335  -0.101444
     10      -0.155441  -0.077720   0.235648  -0.202889  -0.101444   0.554798
     11       0.142257  -0.020629  -0.030944   0.469842  -0.054024  -0.081037
     12      -0.020629   0.173201  -0.015472  -0.054024   0.550879  -0.040518
     13      -0.030944  -0.015472   0.160308  -0.081037  -0.040518   0.517114
     14       0.156842  -0.148799  -0.223198   0.127884  -0.054019  -0.081028
     15      -0.081937   0.155810  -0.159842   0.025227   0.114770  -0.032158
     16      -0.122905  -0.159842   0.022608   0.037840  -0.032158   0.087971
     17       0.066601   0.164486  -0.146828   0.013399   0.074804  -0.092107
     18      -0.159842   0.116857   0.011304  -0.032158   0.086078   0.043986
     19       0.339102  -0.153225  -0.229837   0.411593  -0.147970  -0.221954
     20       0.053237   0.306151  -0.099838   0.116594   0.364668  -0.065740
     21       0.079856  -0.099838   0.222952   0.174891  -0.065740   0.309885
     22       0.041599   0.207154  -0.248333   0.027392   0.217943  -0.285827
     23      -0.099838   0.229613   0.111476  -0.065740   0.273501   0.154942
     24       0.227769  -0.149945  -0.224918   0.062074  -0.046848  -0.070272
     25       0.131170   0.112047  -0.155053   0.061769   0.044601  -0.028488
     26       0.196754  -0.155053  -0.017164   0.092653  -0.028488   0.020860
     27       0.019500   0.256853  -0.255854  -0.008534   0.068680  -0.086248
     28      -0.046799   0.217026   0.058399   0.020481   0.081216   0.042962
     29      -0.081018   0.041285   0.135542  -0.010499   0.018897   0.050077
     30       0.015851  -0.188381   0.093683   0.002054  -0.056924   0.025687
     31       0.000000   0.000000  -0.000000  -0.000000  -0.000000  -0.000000
     32      -0.000000  -0.000000  -0.000000   0.000000   0.000000   0.000000
     33       0.000000   0.000000  -0.000000   0.000000   0.000000   0.000000
     34      -0.000000  -0.000000  -0.000000  -0.000000  -0.000000   0.000000
     35      -0.000000  -0.000000   0.000000   0.000000   0.000000   0.000000
     36       1.000000   0.000000   0.000000   0.600837   0.000000   0.000000
     37       0.000000   1.000000   0.000000   0.000000   0.600837   0.000000
     38       0.000000   0.000000   1.000000   0.000000   0.000000   0.600837
     39       0.600837   0.000000   0.000000   1.000000   0.000000   0.000000
     40       0.000000   0.600837   0.000000   0.000000   1.000000   0.000000
     41       0.000000   0.000000   0.600837   0.000000   0.000000   1.000000
     42       0.224991   0.000000   0.000000   0.684596   0.000000   0.000000
     43       0.000000   0.224991   0.000000   0.000000   0.684596   0.000000
     44       0.000000   0.000000   0.224991   0.000000   0.000000   0.684596
     45       0.000000  -0.000000   0.000000   0.000000   0.000000   0.000000
     46       0.000000   0.000000   0.000000   0.000000   0.000000   0.000000
     47      -0.000000   0.000000   0.000000   0.000000   0.000000   0.000000
     48       0.000000   0.000000   0.000000   0.000000   0.000000   0.000000
     49       0.000000  -0.000000   0.000000   0.000000   0.000000   0.000000
     50       0.000000  -0.000000   0.000000   0.000000   0.000000   0.000000
     51       0.000000   0.000000   0.000000   0.000000   0.000000   0.000000
     52      -0.000000   0.000000   0.000000   0.000000   0.000000   0.000000
     53       0.000000   0.000000   0.000000   0.000000   0.000000   0.000000
     54       0.000000  -0.000000   0.000000   0.000000   0.000000   0.000000
     55       0.000000  -0.000000   0.000000   0.000000   0.000000   0.000000
     56       0.000000   0.000000   0.000000   0.000000   0.000000   0.000000
     57       0.000000   0.000000   0.000000   0.000000   0.000000   0.000000
     58      -0.000000   0.000000   0.000000  -0.000000   0.000000   0.000000
     59       0.000000   0.000000   0.000000   0.000000   0.000000   0.000000
     60       0.000000   0.000000   0.000000   0.000000   0.000000   0.000000
     61       0.000000   0.000000   0.000000   0.000000   0.000000  -0.000000
                 42         43         44         45         46         47    
      0      -0.025852  -0.012926  -0.019389   0.032573   0.047510   0.071266
      1      -0.084816  -0.042408  -0.063612   0.092102   0.134337   0.201505
      2      -0.269783  -0.134891  -0.202337   0.084265   0.122906   0.184358
      3      -0.362661  -0.181331  -0.271996   0.024807   0.036182   0.054273
      4      -0.328188  -0.164094  -0.246141   0.003693   0.005387   0.008080
      5       0.142257  -0.020629  -0.030944  -0.156842   0.081937   0.122905
      6      -0.020629   0.173201  -0.015472   0.148799  -0.155810   0.159842
      7      -0.030944  -0.015472   0.160308   0.223198   0.159842  -0.022608
      8       0.469842  -0.054024  -0.081037  -0.127884  -0.025227  -0.037840
      9      -0.054024   0.550879  -0.040518   0.054019  -0.114770   0.032158
     10      -0.081037  -0.040518   0.517114   0.081028   0.032158  -0.087971
     11       0.783356  -0.055295  -0.082942  -0.025909  -0.009260  -0.013890
     12      -0.055295   0.866297  -0.041471   0.007910  -0.022699   0.002090
     13      -0.082942  -0.041471   0.831738   0.011865   0.002090  -0.020958
     14       0.025909  -0.007910  -0.011865  -0.295673   0.005544   0.008315
     15       0.009260   0.022699  -0.002090   0.005544  -0.086290   0.103283
     16       0.013890  -0.002090   0.020958   0.008315   0.103283  -0.000221
     17       0.000871   0.012481  -0.017416  -0.097880  -0.226908   0.192543
     18      -0.002090   0.017024   0.010479   0.234912  -0.148198  -0.000253
     19       0.148385  -0.044025  -0.066037  -0.040395  -0.030415  -0.045622
     20       0.054778   0.129768  -0.010106  -0.030415   0.047685  -0.016947
     21       0.082167  -0.010106   0.121346  -0.045622  -0.016947   0.033563
     22       0.004211   0.070358  -0.099221  -0.042808  -0.108219   0.127616
     23      -0.010106   0.097326   0.060673   0.102738  -0.117203  -0.054994
     24       0.004940  -0.003984  -0.005976   0.032348  -0.077457  -0.116185
     25       0.006027   0.004150  -0.001679  -0.063922   0.168668  -0.046304
     26       0.009040  -0.001679   0.002751  -0.095884  -0.046304   0.130081
     27      -0.001271   0.005409  -0.007569  -0.033697  -0.073671   0.071895
     28       0.003049   0.007406   0.004574   0.080873  -0.060312  -0.014467
     29      -0.000341   0.001830   0.004546   0.149645  -0.042715  -0.144052
     30       0.000067  -0.004769   0.002051  -0.029278   0.204247  -0.102409
     31      -0.000000  -0.000000  -0.000000   0.000000   0.000000   0.000000
     32      -0.000000  -0.000000  -0.000000   0.000000   0.000000   0.000000
     33      -0.000000  -0.000000   0.000000   0.000000   0.000000   0.000000
     34       0.000000   0.000000   0.000000   0.000000   0.000000   0.000000
     35       0.000000   0.000000   0.000000   0.000000   0.000000   0.000000
     36       0.224991   0.000000   0.000000   0.000000   0.000000  -0.000000
     37       0.000000   0.224991   0.000000  -0.000000   0.000000   0.000000
     38       0.000000   0.000000   0.224991   0.000000   0.000000   0.000000
     39       0.684596   0.000000   0.000000   0.000000   0.000000   0.000000
     40       0.000000   0.684596   0.000000   0.000000   0.000000   0.000000
     41       0.000000   0.000000   0.684596   0.000000   0.000000   0.000000
     42       1.000000   0.000000   0.000000   0.000000   0.000000   0.000000
     43       0.000000   1.000000   0.000000  -0.000000   0.000000   0.000000
     44       0.000000   0.000000   1.000000   0.000000   0.000000   0.000000
     45       0.000000  -0.000000   0.000000   1.000000   0.000000   0.000000
     46       0.000000   0.000000   0.000000   0.000000   1.000000   0.000000
     47       0.000000   0.000000   0.000000   0.000000   0.000000   1.000000
     48       0.000000   0.000000   0.000000   0.000000   0.000000   0.000000
     49       0.000000   0.000000   0.000000   0.000000   0.000000   0.000000
     50       0.000000   0.000000   0.000000   0.505175   0.000000   0.000000
     51       0.000000   0.000000   0.000000   0.000000   0.505175   0.000000
     52      -0.000000   0.000000   0.000000   0.000000   0.000000   0.505175
     53       0.000000   0.000000   0.000000   0.000000   0.000000   0.000000
     54       0.000000  -0.000000   0.000000   0.000000   0.000000   0.000000
     55       0.000000  -0.000000  -0.000000   0.000000  -0.000000  -0.000000
     56       0.000000  -0.000000  -0.000000   0.000000   0.000000   0.000000
     57       0.000000  -0.000000  -0.000000   0.000000   0.000000   0.000000
     58      -0.000000   0.000000  -0.000000  -0.000000   0.000000  -0.000000
     59       0.000000   0.000000   0.000000   0.000000   0.000000   0.000000
     60      -0.000000  -0.000000   0.000000  -0.000000  -0.000000   0.000000
     61       0.000000  -0.000000   0.000000   0.000000  -0.000000   0.000000
                 48         49         50         51         52         53    
      0      -0.014847   0.035633   0.034305   0.050037   0.075055  -0.015636
      1      -0.041980   0.100752   0.097127   0.141667   0.212500  -0.044271
      2      -0.038408   0.092179   0.147127   0.214594   0.321892  -0.067061
      3      -0.011307   0.027137   0.078945   0.115146   0.172719  -0.035983
      4      -0.001683   0.004040   0.019989   0.029155   0.043732  -0.009111
      5      -0.066601   0.159842  -0.339102  -0.053237  -0.079856  -0.041599
      6      -0.164486  -0.116857   0.153225  -0.306151   0.099838  -0.207154
      7       0.146828  -0.011304   0.229837   0.099838  -0.222952   0.248333
      8      -0.013399   0.032158  -0.411593  -0.116594  -0.174891  -0.027392
      9      -0.074804  -0.086078   0.147970  -0.364668   0.065740  -0.217943
     10       0.092107  -0.043986   0.221954   0.065740  -0.309885   0.285827
     11      -0.000871   0.002090  -0.148385  -0.054778  -0.082167  -0.004211
     12      -0.012481  -0.017024   0.044025  -0.129768   0.010106  -0.070358
     13       0.017416  -0.010479   0.066037   0.010106  -0.121346   0.099221
     14      -0.097880   0.234912  -0.040395  -0.030415  -0.045622  -0.042808
     15      -0.226908  -0.148198  -0.030415   0.047685  -0.016947  -0.108219
     16       0.192543  -0.000253  -0.045622  -0.016947   0.033563   0.127616
     17      -0.073135  -0.036955  -0.042808  -0.108219   0.127616   0.098843
     18      -0.036955   0.000158   0.102738  -0.117203  -0.054994  -0.008678
     19      -0.042808   0.102738   0.156958  -0.064305  -0.096457  -0.064821
     20      -0.108219  -0.117203  -0.064305   0.288393  -0.060183  -0.168860
     21       0.127616  -0.054994  -0.096457  -0.060183   0.238241   0.217365
     22       0.098843  -0.008678  -0.064821  -0.168860   0.217365   0.391089
     23      -0.008678   0.116054   0.155571  -0.206587  -0.113774  -0.008981
     24      -0.106854   0.256451   0.193107  -0.077905  -0.116858  -0.042289
     25      -0.218931  -0.142306   0.037617   0.217812  -0.040849  -0.100667
     26       0.185250   0.000560   0.056425  -0.040849   0.183771   0.110154
     27      -0.019172  -0.036862  -0.006483   0.047525  -0.057673   0.122513
     28      -0.036862   0.053938   0.015558   0.053588   0.026649  -0.007091
     29      -0.108801   0.176181   0.051604  -0.025399  -0.068948  -0.120549
     30      -0.138747  -0.101151  -0.010096   0.080528  -0.036883  -0.176119
     31      -0.000000   0.000000  -0.000000   0.000000   0.000000  -0.000000
     32      -0.000000   0.000000  -0.000000   0.000000   0.000000  -0.000000
     33      -0.000000   0.000000   0.000000   0.000000   0.000000  -0.000000
     34      -0.000000   0.000000   0.000000   0.000000   0.000000  -0.000000
     35      -0.000000   0.000000   0.000000   0.000000   0.000000  -0.000000
     36       0.000000   0.000000   0.000000   0.000000  -0.000000   0.000000
     37       0.000000  -0.000000  -0.000000   0.000000   0.000000   0.000000
     38       0.000000   0.000000   0.000000   0.000000   0.000000   0.000000
     39       0.000000   0.000000   0.000000   0.000000   0.000000   0.000000
     40       0.000000   0.000000   0.000000   0.000000   0.000000   0.000000
     41       0.000000   0.000000   0.000000   0.000000   0.000000   0.000000
     42       0.000000   0.000000   0.000000   0.000000  -0.000000   0.000000
     43       0.000000   0.000000   0.000000   0.000000   0.000000   0.000000
     44       0.000000   0.000000   0.000000   0.000000   0.000000   0.000000
     45       0.000000   0.000000   0.505175   0.000000   0.000000   0.000000
     46       0.000000   0.000000   0.000000   0.505175   0.000000   0.000000
     47       0.000000   0.000000   0.000000   0.000000   0.505175   0.000000
     48       1.000000   0.000000  -0.000000   0.000000   0.000000   0.505175
     49       0.000000   1.000000   0.000000   0.000000   0.000000   0.000000
     50      -0.000000   0.000000   1.000000   0.000000   0.000000   0.000000
     51       0.000000   0.000000   0.000000   1.000000   0.000000   0.000000
     52       0.000000   0.000000   0.000000   0.000000   1.000000   0.000000
     53       0.505175   0.000000   0.000000   0.000000   0.000000   1.000000
     54       0.000000   0.505175   0.000000   0.000000   0.000000   0.000000
     55       0.000000  -0.000000   0.000000   0.000000   0.000000   0.000000
     56      -0.000000  -0.000000   0.000000   0.000000   0.000000   0.000000
     57       0.000000  -0.000000  -0.000000   0.000000   0.000000  -0.000000
     58       0.000000  -0.000000   0.000000   0.000000   0.000000   0.000000
     59      -0.000000   0.000000   0.000000  -0.000000   0.000000   0.000000
     60      -0.000000   0.000000   0.000000   0.000000   0.000000   0.000000
     61      -0.000000  -0.000000   0.000000   0.000000   0.000000   0.000000
                 54         55         56         57         58         59    
      0       0.037528   0.015317  -0.068338  -0.102507   0.042373  -0.101696
      1       0.106250   0.035129  -0.156732  -0.235098   0.097182  -0.233238
      2       0.160946   0.018803  -0.083889  -0.125833   0.052016  -0.124838
      3       0.086360   0.003602  -0.016073  -0.024109   0.009966  -0.023918
      4       0.021866   0.000286  -0.001278  -0.001916   0.000792  -0.001901
      5       0.099838   0.227769   0.131170   0.196754   0.019500  -0.046799
      6      -0.229613  -0.149945   0.112047  -0.155053   0.256853   0.217026
      7      -0.111476  -0.224918  -0.155053  -0.017164  -0.255854   0.058399
      8       0.065740   0.062074   0.061769   0.092653  -0.008534   0.020481
      9      -0.273501  -0.046848   0.044601  -0.028488   0.068680   0.081216
     10      -0.154942  -0.070272  -0.028488   0.020860  -0.086248   0.042962
     11       0.010106   0.004940   0.006027   0.009040  -0.001271   0.003049
     12      -0.097326  -0.003984   0.004150  -0.001679   0.005409   0.007406
     13      -0.060673  -0.005976  -0.001679   0.002751  -0.007569   0.004574
     14       0.102738  -0.032348   0.063922   0.095884   0.033697  -0.080873
     15      -0.117203   0.077457  -0.168668   0.046304   0.073671   0.060312
     16      -0.054994   0.116185   0.046304  -0.130081  -0.071895   0.014467
     17      -0.008678   0.106854   0.218931  -0.185250   0.019172   0.036862
     18       0.116054  -0.256451   0.142306  -0.000560   0.036862  -0.053938
     19       0.155571  -0.193107  -0.037617  -0.056425   0.006483  -0.015558
     20      -0.206587   0.077905  -0.217812   0.040849  -0.047525  -0.053588
     21      -0.113774   0.116858   0.040849  -0.183771   0.057673  -0.026649
     22      -0.008981   0.042289   0.100667  -0.110154  -0.122513   0.007091
     23       0.408902  -0.101495   0.097899   0.038035   0.007091  -0.136578
     24       0.101495  -0.248709  -0.005713  -0.008570  -0.026883   0.064519
     25      -0.097899  -0.005713  -0.200181  -0.001882  -0.083300  -0.114055
     26      -0.038035  -0.008570  -0.001882  -0.201750   0.116569  -0.070449
     27      -0.007091  -0.026883  -0.083300   0.116569  -0.004922   0.002483
     28       0.136578   0.064519  -0.114055  -0.070449   0.002483  -0.009847
     29       0.183321  -0.147549   0.043064   0.147406   0.149131  -0.233744
     30      -0.119077   0.028868  -0.211250   0.106376   0.204767   0.143209
     31       0.000000  -0.000000   0.000000   0.000000   0.000000  -0.000000
     32       0.000000   0.000000  -0.000000  -0.000000  -0.000000   0.000000
     33       0.000000   0.000000  -0.000000   0.000000  -0.000000   0.000000
     34       0.000000   0.000000   0.000000   0.000000   0.000000   0.000000
     35       0.000000  -0.000000   0.000000   0.000000   0.000000  -0.000000
     36       0.000000   0.000000   0.000000   0.000000  -0.000000   0.000000
     37      -0.000000  -0.000000   0.000000   0.000000   0.000000   0.000000
     38       0.000000   0.000000   0.000000   0.000000   0.000000   0.000000
     39       0.000000   0.000000   0.000000   0.000000  -0.000000   0.000000
     40       0.000000   0.000000   0.000000   0.000000   0.000000   0.000000
     41       0.000000   0.000000   0.000000   0.000000   0.000000   0.000000
     42       0.000000   0.000000   0.000000   0.000000  -0.000000   0.000000
     43      -0.000000  -0.000000  -0.000000  -0.000000   0.000000   0.000000
     44       0.000000  -0.000000  -0.000000  -0.000000  -0.000000   0.000000
     45       0.000000   0.000000   0.000000   0.000000  -0.000000   0.000000
     46       0.000000  -0.000000   0.000000   0.000000   0.000000   0.000000
     47       0.000000  -0.000000   0.000000   0.000000  -0.000000   0.000000
     48       0.000000   0.000000  -0.000000   0.000000   0.000000  -0.000000
     49       0.505175  -0.000000  -0.000000  -0.000000  -0.000000   0.000000
     50       0.000000   0.000000   0.000000  -0.000000   0.000000   0.000000
     51       0.000000   0.000000   0.000000   0.000000   0.000000  -0.000000
     52       0.000000   0.000000   0.000000   0.000000   0.000000   0.000000
     53       0.000000   0.000000   0.000000  -0.000000   0.000000   0.000000
     54       1.000000   0.000000   0.000000   0.000000   0.000000   0.000000
     55       0.000000   1.000000   0.000000   0.000000   0.000000   0.000000
     56       0.000000   0.000000   1.000000   0.000000   0.000000   0.000000
     57       0.000000   0.000000   0.000000   1.000000   0.000000   0.000000
     58       0.000000   0.000000   0.000000   0.000000   1.000000   0.000000
     59       0.000000   0.000000   0.000000   0.000000   0.000000   1.000000
     60      -0.000000   0.000000   0.000000   0.000000   0.000000   0.000000
     61       0.000000   0.000000   0.000000   0.000000   0.000000   0.000000
                 60         61    
      0      -0.039787   0.007784
      1      -0.091251   0.017854
      2      -0.048841   0.009556
      3      -0.009358   0.001831
      4      -0.000744   0.000146
      5      -0.081018   0.015851
      6       0.041285  -0.188381
      7       0.135542   0.093683
      8      -0.010499   0.002054
      9       0.018897  -0.056924
     10       0.050077   0.025687
     11      -0.000341   0.000067
     12       0.001830  -0.004769
     13       0.004546   0.002051
     14      -0.149645   0.029278
     15       0.042715  -0.204247
     16       0.144052   0.102409
     17       0.108801   0.138747
     18      -0.176181   0.101151
     19      -0.051604   0.010096
     20       0.025399  -0.080528
     21       0.068948   0.036883
     22       0.120549   0.176119
     23      -0.183321   0.119077
     24      -0.147549   0.028868
     25       0.043064  -0.211250
     26       0.147406   0.106376
     27       0.149131   0.204767
     28      -0.233744   0.143209
     29      -0.024535   0.002051
     30       0.002051  -0.014453
     31       0.000000  -0.000000
     32       0.000000  -0.000000
     33      -0.000000   0.000000
     34       0.000000   0.000000
     35       0.000000  -0.000000
     36       0.000000   0.000000
     37       0.000000   0.000000
     38       0.000000   0.000000
     39       0.000000   0.000000
     40       0.000000   0.000000
     41       0.000000  -0.000000
     42      -0.000000   0.000000
     43      -0.000000  -0.000000
     44       0.000000   0.000000
     45      -0.000000   0.000000
     46      -0.000000  -0.000000
     47       0.000000   0.000000
     48      -0.000000  -0.000000
     49       0.000000  -0.000000
     50       0.000000   0.000000
     51       0.000000   0.000000
     52       0.000000   0.000000
     53       0.000000   0.000000
     54      -0.000000   0.000000
     55       0.000000   0.000000
     56       0.000000   0.000000
     57       0.000000   0.000000
     58       0.000000   0.000000
     59       0.000000   0.000000
     60       1.000000   0.000000
     61       0.000000   1.000000
Time for model grid setup =    0.016 sec

------------------------------
INITIAL GUESS: MODEL POTENTIAL
------------------------------
Loading Hartree-Fock densities                     ... done
Calculating cut-offs                               ... done
Initializing the effective Hamiltonian             ... done
Setting up the integral package (SHARK)            ... done
Starting the Coulomb interaction                   ... done (   0.0 sec)
Reading the grid                                   ... done
Mapping shells                                     ... done
Starting the XC term evaluation                    ... done (   0.0 sec)
Transforming the Hamiltonian                       ... done (   0.0 sec)
Diagonalizing the Hamiltonian                      ... done (   0.0 sec)
Back transforming the eigenvectors                 ... done (   0.0 sec)
Now organizing SCF variables                       ... done
                      ------------------
                      INITIAL GUESS DONE (   0.0 sec)
                      ------------------
--------------
SCF ITERATIONS
--------------
ITER       Energy         Delta-E        Max-DP      RMS-DP      [F,P]     Damp
               ***  Starting incremental Fock matrix formation  ***
  0   -192.3186122062   0.000000000000 0.25414295  0.01355044  0.4645484 0.7000
  1   -192.4284981536  -0.109885947426 0.17388088  0.00971417  0.2707531 0.7000
                               ***Turning on DIIS***
  2   -192.4855572994  -0.057059145862 0.10738140  0.00540790  0.1546267 0.7000
  3   -193.0246301718  -0.539072872370 0.07589257  0.00306406  0.1176158 0.7000
  4   -192.9021646668   0.122465505001 0.19468329  0.00801868  0.0836746 0.0000
  5   -192.6221837214   0.279980945369 0.01660611  0.00075821  0.0056412 0.0000
                      *** Initiating the SOSCF procedure ***
                           *** Shutting down DIIS ***
                      *** Re-Reading the Fockian *** 
                      *** Removing any level shift *** 
ITER      Energy       Delta-E        Grad      Rot      Max-DP    RMS-DP
  6   -192.59676090   0.0254228176  0.000372  0.000372  0.003928  0.000185
               *** Restarting incremental Fock matrix formation ***
  7   -192.59731020  -0.0005493007  0.000086  0.000068  0.000596  0.000036
  8   -192.59731024  -0.0000000326  0.000046  0.000019  0.000138  0.000009
                 **** Energy Check signals convergence ****
              ***Rediagonalizing the Fockian in SOSCF/NRSCF***

               *****************************************************
               *                     SUCCESS                       *
               *           SCF CONVERGED AFTER   9 CYCLES          *
               *****************************************************


----------------
TOTAL SCF ENERGY
----------------

Total Energy       :         -192.59731025 Eh           -5240.83925 eV

Components:
Nuclear Repulsion  :           79.59524993 Eh            2165.89686 eV
Electronic Energy  :         -272.19256017 Eh           -7406.73611 eV
One Electron Energy:         -416.89228474 Eh          -11344.21580 eV
Two Electron Energy:          144.69972457 Eh            3937.47968 eV

Virial components:
Potential Energy   :         -407.12225134 Eh          -11078.35967 eV
Kinetic Energy     :          214.52494110 Eh            5837.52042 eV
Virial Ratio       :            1.89778517


---------------
SCF CONVERGENCE
---------------

  Last Energy change         ...   -1.0471e-08  Tolerance :   1.0000e-06
  Last MAX-Density change    ...    1.5559e-05  Tolerance :   1.0000e-05
  Last RMS-Density change    ...    8.4235e-07  Tolerance :   1.0000e-06
  Last Orbital Gradient      ...    4.8184e-06  Tolerance :   5.0000e-05
  Last Orbital Rotation      ...    2.7912e-06  Tolerance :   5.0000e-05

             **** THE GBW FILE WAS UPDATED (def2tzvp.gbw) ****
             **** DENSITY def2tzvp.scfp WAS UPDATED ****
             **** ENERGY FILE WAS UPDATED (def2tzvp.en.tmp) ****
             **** THE GBW FILE WAS UPDATED (def2tzvp.gbw) ****
             **** DENSITY def2tzvp.scfp WAS UPDATED ****
----------------
ORBITAL ENERGIES
----------------

  NO   OCC          E(Eh)            E(eV) 
   0   2.0000     -26.903639      -732.0852 
   1   2.0000     -26.744449      -727.7534 
   2   2.0000      -3.326925       -90.5302 
   3   2.0000      -1.942779       -52.8657 
   4   2.0000      -1.942779       -52.8657 
   5   2.0000      -1.387169       -37.7468 
   6   2.0000      -1.268636       -34.5213 
   7   2.0000      -0.115029        -3.1301 
   8   2.0000      -0.115029        -3.1301 
   9   0.0000       0.422512        11.4971 
  10   0.0000       0.454702        12.3731 
  11   0.0000       0.454702        12.3731 
  12   0.0000       0.551814        15.0156 
  13   0.0000       0.652912        17.7666 
  14   0.0000       0.865873        23.5616 
  15   0.0000       0.865873        23.5616 
  16   0.0000       1.356824        36.9211 
  17   0.0000       1.650769        44.9197 
  18   0.0000       1.650769        44.9197 
  19   0.0000       1.957972        53.2791 
  20   0.0000       2.267386        61.6987 
  21   0.0000       2.394209        65.1497 
  22   0.0000       2.394209        65.1497 
  23   0.0000       2.749018        74.8046 
  24   0.0000       2.749018        74.8046 
  25   0.0000       3.104993        84.4912 
  26   0.0000       3.104993        84.4912 
  27   0.0000       3.166888        86.1754 
  28   0.0000       3.166888        86.1754 
  29   0.0000       3.245478        88.3140 
  30   0.0000       3.797316       103.3302 
  31   0.0000       4.260761       115.9412 
  32   0.0000       4.260761       115.9412 
  33   0.0000       4.538224       123.4914 
  34   0.0000       4.738444       128.9396 
  35   0.0000       6.321126       172.0066 
  36   0.0000       6.321126       172.0066 
  37   0.0000       6.660903       181.2524 
  38   0.0000       6.660903       181.2524 
  39   0.0000       7.241029       197.0384 
  40   0.0000       7.626710       207.5333 
  41   0.0000       7.626710       207.5333 
  42   0.0000       8.110585       220.7002 
  43   0.0000       8.110585       220.7002 
  44   0.0000       8.158208       221.9961 
  45   0.0000       8.158208       221.9961 
  46   0.0000       8.586212       233.6427 
  47   0.0000       8.586212       233.6427 
  48   0.0000       8.764569       238.4961 
  49   0.0000       9.183981       249.9088 
  50   0.0000       9.183981       249.9088 
  51   0.0000       9.845937       267.9216 
  52   0.0000      10.576434       287.7994 
  53   0.0000      10.576434       287.7994 
  54   0.0000      10.645371       289.6753 
  55   0.0000      11.422955       310.8344 
  56   0.0000      11.422955       310.8344 
  57   0.0000      12.899345       351.0090 
  58   0.0000      12.899345       351.0090 
  59   0.0000      15.321070       416.9075 
  60   0.0000      59.553028      1620.5203 
  61   0.0000      60.261748      1639.8055 
------------------
MOLECULAR ORBITALS
------------------
                      0         1         2         3         4         5   
                 -26.90364 -26.74445  -3.32692  -1.94278  -1.94278  -1.38717
                   2.00000   2.00000   2.00000   2.00000   2.00000   2.00000
                  --------  --------  --------  --------  --------  --------
  0F   1s         0.298294 -0.301518  0.098898  0.000000 -0.000000  0.021568
  0F   2s         0.455460 -0.461613  0.242639  0.000000 -0.000000  0.055425
  0F   3s         0.013288 -0.033085 -0.254755 -0.000000  0.000000 -0.142297
  0F   4s        -0.000344 -0.027123 -0.168877 -0.000000 -0.000000 -0.247029
  0F   5s         0.000216 -0.026027 -0.005638  0.000000 -0.000000 -0.137914
  0F   1pz        0.007070 -0.009643 -0.238744 -0.105010  0.262839  0.295396
  0F   1px        0.003535 -0.004822 -0.119372 -0.262017 -0.292246  0.147698
  0F   1py        0.005302 -0.007233 -0.179058  0.314691 -0.155622  0.221547
  0F   2pz        0.000249 -0.012879 -0.054661 -0.046628  0.116711  0.136333
  0F   2px        0.000124 -0.006440 -0.027330 -0.116346 -0.129769  0.068166
  0F   2py        0.000187 -0.009659 -0.040995  0.139735 -0.069102  0.102249
  0F   3pz        0.000853 -0.003783 -0.002911 -0.005682  0.014221  0.032353
  0F   3px        0.000427 -0.001891 -0.001455 -0.014177 -0.015812  0.016176
  0F   3py        0.000640 -0.002837 -0.002183  0.017026 -0.008420  0.024264
  0F   1dz2       0.001564 -0.001212 -0.013002 -0.015094  0.037781  0.012749
  0F   1dxz       0.002281 -0.001767 -0.018965 -0.026102 -0.013347  0.018595
  0F   1dyz       0.003421 -0.002651 -0.028447  0.019580  0.003445  0.027893
  0F   1dx2y2    -0.000713  0.000552  0.005927 -0.030459 -0.002440 -0.005811
  0F   1dxy       0.001710 -0.001326 -0.014224 -0.003250 -0.024647  0.013946
  0F   2dz2       0.000613 -0.001425 -0.007834 -0.008023  0.020081  0.011540
[...]
  1F   1f+3       0.157640  0.563884  0.548985  0.210574  0.065056 -0.292638
  1F   1f-3       0.539021 -0.160280 -0.210493  0.552776  0.279999  0.067091
                     48        49        50        51        52        53   
                   8.76457   9.18398   9.18398   9.84594  10.57643  10.57643
                   0.00000   0.00000   0.00000   0.00000   0.00000   0.00000
                  --------  --------  --------  --------  --------  --------
  0F   1s        -0.001647 -0.000000  0.000000  0.035845  0.000000  0.000000
  0F   2s         0.049265  0.000000  0.000000  0.070430  0.000000  0.000000
  0F   3s         3.351299  0.000000  0.000000  4.849347  0.000000  0.000000
  0F   4s        -1.061701 -0.000000 -0.000000 -2.147633  0.000000  0.000004
  0F   5s        -0.338287 -0.000000 -0.000000 -0.205294 -0.000000 -0.000000
  0F   1pz        0.027081  0.605160  0.242363  0.382221 -0.529811 -0.212030
  0F   1px        0.013540 -0.673598  0.602904  0.191110  0.589534 -0.527932
  0F   1py        0.020311 -0.357814 -0.725087  0.286665  0.313392  0.634662
  0F   2pz       -2.222531  3.321637  1.330297 -3.220067  0.123462  0.049411
  0F   2px       -1.111265 -3.697285  3.309254 -1.610034 -0.137379  0.123024
  0F   2py       -1.666898 -1.963992 -3.979899 -2.415050 -0.073030 -0.147894
  0F   3pz       -0.135528 -0.303067 -0.121377  0.353475 -0.009241 -0.003698
  0F   3px       -0.067764  0.337341 -0.301937  0.176738  0.010283 -0.009209
  0F   3py       -0.101646  0.179195  0.363127  0.265106  0.005466  0.011070
  0F   1dz2       0.133210  0.001249  0.000500 -0.262316 -0.119070 -0.047652
  0F   1dxz       0.194297 -0.000442  0.000863 -0.382606  0.042122 -0.082258
  0F   1dyz       0.291445  0.000114 -0.000647 -0.573910 -0.010895  0.061716
  0F   1dx2y2    -0.060718 -0.000082  0.001007  0.119565  0.007749 -0.096013
  0F   1dxy       0.145722 -0.000815  0.000107 -0.286955  0.077703 -0.010201
  0F   2dz2      -0.765786  2.383827  0.954709 -0.812614  0.526468  0.210692
  0F   2dxz      -1.116951 -0.843799  1.646773 -1.185254 -0.186242  0.363700
  0F   2dyz      -1.675427  0.218457 -1.235649 -1.777881  0.048172 -0.272877
  0F   2dx2y2     0.349047 -0.155648  1.922374  0.370392 -0.034263  0.424521
  0F   2dxy      -0.837713 -1.555848  0.203854 -0.888940 -0.343562  0.045104
  0F   1f0        0.078195  0.668118  0.267578  0.086799  0.805054  0.322182
  0F   1f+1      -0.348872  0.124251  0.443095 -0.387258  0.149838  0.533819
  0F   1f-1      -0.523308  0.480510 -0.069781 -0.580888  0.578913 -0.084221
  0F   1f+2       0.216320 -0.145767  0.722063  0.240121 -0.175405  0.870011
  0F   1f-2      -0.519168 -0.408852  0.161441 -0.576291 -0.492549  0.194635
  0F   1f+3      -0.203118 -0.262248 -0.194639 -0.225467 -0.316025 -0.234428
  0F   1f-3       0.039740  0.215435 -0.371727  0.044113  0.259450 -0.447936
  1F   1s        -0.001647 -0.000000  0.000000  0.035845 -0.000000 -0.000000
  1F   2s         0.049265  0.000000  0.000000  0.070430 -0.000000 -0.000000
  1F   3s         3.351299  0.000000  0.000000  4.849347 -0.000000 -0.000000
  1F   4s        -1.061701  0.000000 -0.000000 -2.147633 -0.000000 -0.000004
  1F   5s        -0.338287 -0.000000 -0.000000 -0.205294  0.000000  0.000000
  1F   1pz       -0.027081 -0.605160 -0.242363 -0.382221 -0.529811 -0.212030
  1F   1px       -0.013540  0.673598 -0.602904 -0.191110  0.589534 -0.527932
  1F   1py       -0.020311  0.357814  0.725087 -0.286665  0.313392  0.634662
  1F   2pz        2.222531 -3.321637 -1.330297  3.220067  0.123462  0.049411
  1F   2px        1.111265  3.697285 -3.309254  1.610034 -0.137379  0.123024
  1F   2py        1.666898  1.963992  3.979899  2.415050 -0.073030 -0.147894
  1F   3pz        0.135528  0.303067  0.121377 -0.353475 -0.009241 -0.003698
  1F   3px        0.067764 -0.337341  0.301937 -0.176738  0.010283 -0.009209
  1F   3py        0.101646 -0.179195 -0.363127 -0.265106  0.005466  0.011070
  1F   1dz2       0.133210  0.001249  0.000500 -0.262316  0.119070  0.047652
  1F   1dxz       0.194297 -0.000442  0.000863 -0.382606 -0.042122  0.082258
  1F   1dyz       0.291445  0.000114 -0.000647 -0.573910  0.010895 -0.061716
  1F   1dx2y2    -0.060718 -0.000082  0.001007  0.119565 -0.007749  0.096013
  1F   1dxy       0.145722 -0.000815  0.000107 -0.286955 -0.077703  0.010201
  1F   2dz2      -0.765786  2.383827  0.954709 -0.812614 -0.526468 -0.210692
  1F   2dxz      -1.116951 -0.843799  1.646773 -1.185254  0.186242 -0.363700
  1F   2dyz      -1.675427  0.218457 -1.235649 -1.777881 -0.048172  0.272877
  1F   2dx2y2     0.349047 -0.155648  1.922374  0.370392  0.034263 -0.424521
  1F   2dxy      -0.837713 -1.555848  0.203854 -0.888940  0.343562 -0.045104
  1F   1f0       -0.078195 -0.668118 -0.267578 -0.086799  0.805054  0.322182
  1F   1f+1       0.348872 -0.124251 -0.443095  0.387258  0.149838  0.533819
  1F   1f-1       0.523308 -0.480510  0.069781  0.580888  0.578913 -0.084221
  1F   1f+2      -0.216320  0.145767 -0.722063 -0.240121 -0.175405  0.870011
  1F   1f-2       0.519168  0.408852 -0.161441  0.576291 -0.492549  0.194635
  1F   1f+3       0.203118  0.262248  0.194639  0.225467 -0.316025 -0.234428
  1F   1f-3      -0.039740 -0.215435  0.371727 -0.044113  0.259450 -0.447936
                     54        55        56        57        58        59   
                  10.64537  11.42295  11.42295  12.89935  12.89935  15.32107
                   0.00000   0.00000   0.00000   0.00000   0.00000   0.00000
                  --------  --------  --------  --------  --------  --------
  0F   1s        -0.024784 -0.000000 -0.000000 -0.000000 -0.000000 -0.021383
  0F   2s        -0.128921 -0.000000 -0.000000 -0.000000 -0.000000 -0.201366
  0F   3s        -2.334307 -0.000000 -0.000000 -0.000000 -0.000000  3.604372
  0F   4s       -35.501893 -0.000000 -0.000000  0.000000  0.000000-21.805592
  0F   5s         0.317616  0.000000  0.000000  0.000000  0.000000  7.047601
  0F   1pz       -0.435043 -0.000000  0.000000 -0.658460 -0.263446  1.650139
  0F   1px       -0.217522  0.000000  0.000000  0.732598 -0.656168  0.825070
  0F   1py       -0.326282 -0.000000 -0.000000  0.389548  0.788706  1.237604
  0F   2pz      -12.116791 -0.000000 -0.000000 -0.563989 -0.225648 -6.414982
  0F   2px       -6.058395 -0.000000 -0.000000  0.627490 -0.562025 -3.207491
  0F   2py       -9.087593 -0.000000 -0.000000  0.333658  0.675548 -4.811237
  0F   3pz        0.089114  0.000000  0.000000  0.230909  0.092385  1.067608
  0F   3px        0.044557  0.000000  0.000000 -0.256908  0.230105  0.533804
  0F   3py        0.066835  0.000000  0.000000 -0.136607 -0.276584  0.800706
  0F   1dz2       0.066315 -0.367610 -0.046177 -1.212625 -0.485164  0.520206
  0F   1dxz       0.096725  0.194955  0.560326  0.428882 -0.837727  0.758757
  0F   1dyz       0.145088  0.436003 -0.302457 -0.110894  0.628512  1.138136
  0F   1dx2y2    -0.030227  0.364122 -0.613753  0.078827 -0.977782 -0.237112
  0F   1dxy       0.072544 -0.644182 -0.355707  0.791297 -0.103957  0.569068
  0F   2dz2      -1.225307 -0.195325 -0.024536 -0.187676 -0.075088 -0.506460
  0F   2dxz      -1.787195  0.103587  0.297723  0.066377 -0.129653 -0.738706
  0F   2dyz      -2.680793  0.231665 -0.160707 -0.017163  0.097274 -1.108059
  0F   2dx2y2     0.558498  0.193472 -0.326110  0.012200 -0.151329  0.230846
  0F   2dxy      -1.340396 -0.342278 -0.189000  0.122467 -0.016089 -0.554030
  0F   1f0        0.121002 -0.792505 -0.099550 -0.423976 -0.169630 -0.031873
  0F   1f+1      -0.539859  0.135421  0.833842 -0.078934 -0.281114  0.142205
  0F   1f-1      -0.809789  0.421989 -0.491546 -0.304865  0.044381  0.213307
  0F   1f+2       0.334742  0.129768 -0.102917  0.092330 -0.458176 -0.088175
  0F   1f-2      -0.803381 -0.269918 -0.083579  0.259379 -0.102523  0.211619
  0F   1f+3      -0.314313 -0.785463  0.047346  0.166437  0.123440  0.082794
  0F   1f-3       0.061496  0.057858  0.753547 -0.136611  0.235906 -0.016199
  1F   1s         0.024784  0.000000  0.000000 -0.000000 -0.000000  0.021383
  1F   2s         0.128921  0.000000  0.000000 -0.000000 -0.000000  0.201366
  1F   3s         2.334307  0.000000  0.000000 -0.000000 -0.000000 -3.604372
  1F   4s        35.501893  0.000000  0.000000  0.000000  0.000000 21.805592
  1F   5s        -0.317616 -0.000000 -0.000000  0.000000  0.000000 -7.047601
  1F   1pz       -0.435043 -0.000000  0.000000  0.658460  0.263446  1.650139
  1F   1px       -0.217522  0.000000  0.000000 -0.732598  0.656168  0.825070
  1F   1py       -0.326282 -0.000000 -0.000000 -0.389548 -0.788706  1.237604
  1F   2pz      -12.116791 -0.000000 -0.000000  0.563989  0.225648 -6.414982
  1F   2px       -6.058395 -0.000000 -0.000000 -0.627490  0.562025 -3.207491
  1F   2py       -9.087593 -0.000000 -0.000000 -0.333658 -0.675548 -4.811237
  1F   3pz        0.089114  0.000000  0.000000 -0.230909 -0.092385  1.067608
  1F   3px        0.044557  0.000000  0.000000  0.256908 -0.230105  0.533804
  1F   3py        0.066835  0.000000  0.000000  0.136607  0.276584  0.800706
  1F   1dz2      -0.066315  0.367610  0.046177 -1.212625 -0.485164 -0.520206
  1F   1dxz      -0.096725 -0.194955 -0.560326  0.428882 -0.837727 -0.758757
  1F   1dyz      -0.145088 -0.436003  0.302457 -0.110894  0.628512 -1.138136
  1F   1dx2y2     0.030227 -0.364122  0.613753  0.078827 -0.977782  0.237112
  1F   1dxy      -0.072544  0.644182  0.355707  0.791297 -0.103957 -0.569068
  1F   2dz2       1.225307  0.195325  0.024536 -0.187676 -0.075088  0.506460
  1F   2dxz       1.787195 -0.103587 -0.297723  0.066377 -0.129653  0.738706
  1F   2dyz       2.680793 -0.231665  0.160707 -0.017163  0.097274  1.108059
  1F   2dx2y2    -0.558498 -0.193472  0.326110  0.012200 -0.151329 -0.230846
  1F   2dxy       1.340396  0.342278  0.189000  0.122467 -0.016089  0.554030
  1F   1f0        0.121002 -0.792505 -0.099550  0.423976  0.169630 -0.031873
  1F   1f+1      -0.539859  0.135421  0.833842  0.078934  0.281114  0.142205
  1F   1f-1      -0.809789  0.421989 -0.491546  0.304865 -0.044381  0.213307
  1F   1f+2       0.334742  0.129768 -0.102917 -0.092330  0.458176 -0.088175
  1F   1f-2      -0.803381 -0.269918 -0.083579 -0.259379  0.102523  0.211619
  1F   1f+3      -0.314313 -0.785463  0.047346 -0.166437 -0.123440  0.082794
  1F   1f-3       0.061496  0.057858  0.753547  0.136611 -0.235906 -0.016199
                     60        61   
                  59.55303  60.26175
                   0.00000   0.00000
                  --------  --------
  0F   1s        -0.994179  0.995378
  0F   2s         1.265705 -1.246338
  0F   3s        -1.428467  0.838659
  0F   4s         3.724285 -0.567986
  0F   5s        -4.997989  0.165038
  0F   1pz       -0.182559 -0.028267
  0F   1px       -0.091279 -0.014134
  0F   1py       -0.136919 -0.021201
  0F   2pz        0.680283  0.003115
  0F   2px        0.340141  0.001557
  0F   2py        0.510212  0.002336
  0F   3pz       -0.756187 -0.002481
  0F   3px       -0.378093 -0.001240
  0F   3py       -0.567140 -0.001860
  0F   1dz2      -0.027174  0.032993
  0F   1dxz      -0.039635  0.048123
  0F   1dyz      -0.059452  0.072184
  0F   1dx2y2     0.012386 -0.015038
  0F   1dxy      -0.029726  0.036092
  0F   2dz2       0.050502 -0.021697
  0F   2dxz       0.073660 -0.031646
  0F   2dyz       0.110490 -0.047469
  0F   2dx2y2    -0.023019  0.009889
  0F   2dxy       0.055245 -0.023735
  0F   1f0       -0.010954 -0.009349
  0F   1f+1       0.048871  0.041712
  0F   1f-1       0.073307  0.062568
  0F   1f+2      -0.030303 -0.025864
  0F   1f-2       0.072727  0.062073
  0F   1f+3       0.028453  0.024285
  0F   1f-3      -0.005567 -0.004751
  1F   1s         0.994179  0.995378
  1F   2s        -1.265705 -1.246338
  1F   3s         1.428467  0.838659
  1F   4s        -3.724285 -0.567986
  1F   5s         4.997989  0.165038
  1F   1pz       -0.182559  0.028267
  1F   1px       -0.091279  0.014134
  1F   1py       -0.136919  0.021201
  1F   2pz        0.680283 -0.003115
  1F   2px        0.340141 -0.001557
  1F   2py        0.510212 -0.002336
  1F   3pz       -0.756187  0.002481
  1F   3px       -0.378093  0.001240
  1F   3py       -0.567140  0.001860
  1F   1dz2       0.027174  0.032993
  1F   1dxz       0.039635  0.048123
  1F   1dyz       0.059452  0.072184
  1F   1dx2y2    -0.012386 -0.015038
  1F   1dxy       0.029726  0.036092
  1F   2dz2      -0.050502 -0.021697
  1F   2dxz      -0.073660 -0.031646
  1F   2dyz      -0.110490 -0.047469
  1F   2dx2y2     0.023019  0.009889
  1F   2dxy      -0.055245 -0.023735
  1F   1f0       -0.010954  0.009349
  1F   1f+1       0.048871 -0.041712
  1F   1f-1       0.073307 -0.062568
  1F   1f+2      -0.030303  0.025864
  1F   1f-2       0.072727 -0.062073
  1F   1f+3       0.028453 -0.024285
  1F   1f-3      -0.005567  0.004751



                    ********************************
                    * MULLIKEN POPULATION ANALYSIS *
                    ********************************

-----------------------
MULLIKEN ATOMIC CHARGES
-----------------------
   0 F :    0.000000
   1 F :   -0.000000
Sum of atomic charges:    0.0000000

--------------------------------
MULLIKEN REDUCED ORBITAL CHARGES
--------------------------------
  0 F s       :     3.846122  s :     3.846122
      pz      :     1.476741  p :     4.907596
      px      :     1.778239
      py      :     1.652615
      dz2     :     0.082137  d :     0.226475
      dxz     :     0.043880
      dyz     :     0.023097
      dx2y2   :     0.046060
      dxy     :     0.031300
      f0      :     0.006001  f :     0.019808
      f+1     :     0.001924
      f-1     :     0.001527
      f+2     :     0.006107
      f-2     :     0.001051
      f+3     :     0.001058
      f-3     :     0.002141
  1 F s       :     3.846122  s :     3.846122
      pz      :     1.476741  p :     4.907596
      px      :     1.778239
      py      :     1.652615
      dz2     :     0.082137  d :     0.226475
      dxz     :     0.043880
      dyz     :     0.023097
      dx2y2   :     0.046060
      dxy     :     0.031300
      f0      :     0.006001  f :     0.019808
      f+1     :     0.001924
      f-1     :     0.001527
      f+2     :     0.006107
      f-2     :     0.001051
      f+3     :     0.001058
      f-3     :     0.002141


                     *******************************
                     * LOEWDIN POPULATION ANALYSIS *
                     *******************************

----------------------
LOEWDIN ATOMIC CHARGES
----------------------
   0 F :    0.000000
   1 F :   -0.000000

-------------------------------
LOEWDIN REDUCED ORBITAL CHARGES
-------------------------------
  0 F s       :     3.178776  s :     3.178776
      pz      :     1.548483  p :     4.509976
      px      :     1.462921
      py      :     1.498572
      dz2     :     0.375470  d :     1.102684
      dxz     :     0.216955
      dyz     :     0.151869
      dx2y2   :     0.206929
      dxy     :     0.151462
      f0      :     0.040972  f :     0.208564
      f+1     :     0.024989
      f-1     :     0.037380
      f+2     :     0.045712
      f-2     :     0.033752
      f+3     :     0.011201
      f-3     :     0.014560
  1 F s       :     3.178776  s :     3.178776
      pz      :     1.548483  p :     4.509976
      px      :     1.462921
      py      :     1.498572
      dz2     :     0.375470  d :     1.102684
      dxz     :     0.216955
      dyz     :     0.151869
      dx2y2   :     0.206929
      dxy     :     0.151462
      f0      :     0.040972  f :     0.208564
      f+1     :     0.024989
      f-1     :     0.037380
      f+2     :     0.045712
      f-2     :     0.033752
      f+3     :     0.011201
      f-3     :     0.014560


                      *****************************
                      * MAYER POPULATION ANALYSIS *
                      *****************************

  NA   - Mulliken gross atomic population
  ZA   - Total nuclear charge
  QA   - Mulliken gross atomic charge
  VA   - Mayer's total valence
  BVA  - Mayer's bonded valence
  FA   - Mayer's free valence

  ATOM       NA         ZA         QA         VA         BVA        FA
  0 F      9.0000     9.0000     0.0000     0.3169     0.3169    -0.0000
  1 F      9.0000     9.0000    -0.0000     0.3169     0.3169     0.0000

  Mayer bond orders larger than 0.100000
B(  0-F ,  1-F ) :   0.3169 

-------
TIMINGS
-------

Total SCF time: 0 days 0 hours 0 min 1 sec 

Total time                  ....       1.959 sec
Sum of individual times     ....       1.668 sec  ( 85.1%)

Fock matrix formation       ....       1.569 sec  ( 80.1%)
Diagonalization             ....       0.005 sec  (  0.3%)
Density matrix formation    ....       0.000 sec  (  0.0%)
Population analysis         ....       0.012 sec  (  0.6%)
Initial guess               ....       0.019 sec  (  1.0%)
Orbital Transformation      ....       0.000 sec  (  0.0%)
Orbital Orthonormalization  ....       0.000 sec  (  0.0%)
DIIS solution               ....       0.037 sec  (  1.9%)
SOSCF solution              ....       0.010 sec  (  0.5%)

Maximum memory used throughout the entire SCF-calculation: 230.7 MB

-------------------------   --------------------
FINAL SINGLE POINT ENERGY      -192.597310247625
-------------------------   --------------------


                            ***************************************
                            *     ORCA property calculations      *
                            ***************************************

                                    ---------------------
                                    Active property flags
                                    ---------------------
   (+) Dipole Moment


------------------------------------------------------------------------------
                       ORCA ELECTRIC PROPERTIES CALCULATION
------------------------------------------------------------------------------

Dipole Moment Calculation                       ... on
Quadrupole Moment Calculation                   ... off
Polarizability Calculation                      ... off
GBWName                                         ... def2tzvp.gbw
Electron density                                ... def2tzvp.scfp
The origin for moment calculation is the CENTER OF MASS  = ( 0.188973,  0.283459  0.377945)

-------------
DIPOLE MOMENT
-------------
                                X             Y             Z
Electronic contribution:      0.00000       0.00000      -0.00000
Nuclear contribution   :      0.00000       0.00000       0.00000
                        -----------------------------------------
Total Dipole Moment    :      0.00000       0.00000      -0.00000
                        -----------------------------------------
Magnitude (a.u.)       :      0.00000
Magnitude (Debye)      :      0.00000



--------------------
Rotational spectrum 
--------------------
 
Rotational constants in cm-1:     0.000000     6.119572     6.119572 
Rotational constants in MHz :     0.000000 183460.139067 183460.139067 

 Dipole components along the rotational axes: 
x,y,z [a.u.] :    -0.000000     0.000000     0.000000 
x,y,z [Debye]:    -0.000000     0.000000     0.000000 

 

Timings for individual modules:

Sum of individual times         ...        2.153 sec (=   0.036 min)
GTO integral calculation        ...        0.153 sec (=   0.003 min)   7.1 %
SCF iterations                  ...        2.000 sec (=   0.033 min)  92.9 %
                             ****ORCA TERMINATED NORMALLY****
TOTAL RUN TIME: 0 days 0 hours 0 minutes 2 seconds 319 msec
