
                                 *****************
                                 * O   R   C   A *
                                 *****************

                                            #,                                       
                                            ###                                      
                                            ####                                     
                                            #####                                    
                                            ######                                   
                                           ########,                                 
                                     ,,################,,,,,                         
                               ,,#################################,,                 
                          ,,##########################################,,             
                       ,#########################################, ''#####,          
                    ,#############################################,,   '####,        
                  ,##################################################,,,,####,       
                ,###########''''           ''''###############################       
              ,#####''   ,,,,##########,,,,          '''####'''          '####       
            ,##' ,,,,###########################,,,                        '##       
           ' ,,###''''                  '''############,,,                           
         ,,##''                                '''############,,,,        ,,,,,,###''
      ,#''                                            '''#######################'''  
     '                                                          ''''####''''         
             ,#######,   #######,   ,#######,      ##                                
            ,#'     '#,  ##    ##  ,#'     '#,    #''#        ######   ,####,        
            ##       ##  ##   ,#'  ##            #'  '#       #        #'  '#        
            ##       ##  #######   ##           ,######,      #####,   #    #        
            '#,     ,#'  ##    ##  '#,     ,#' ,#      #,         ##   #,  ,#        
             '#######'   ##     ##  '#######'  #'      '#     #####' # '####'        



                  #######################################################
                  #                        -***-                        #
                  #          Department of theory and spectroscopy      #
                  #    Directorship and core code : Frank Neese         #
                  #        Max Planck Institute fuer Kohlenforschung    #
                  #                Kaiser Wilhelm Platz 1               #
                  #                 D-45470 Muelheim/Ruhr               #
                  #                      Germany                        #
                  #                                                     #
                  #                  All rights reserved                #
                  #                        -***-                        #
                  #######################################################



                         Program Version 5.0.4 -  RELEASE  -

 With contributions from (in alphabetic order):
   Daniel Aravena         : Magnetic Suceptibility
   Michael Atanasov       : Ab Initio Ligand Field Theory (pilot matlab implementation)
   Alexander A. Auer      : GIAO ZORA, VPT2 properties, NMR spectrum
   Ute Becker             : Parallelization
   Giovanni Bistoni       : ED, misc. LED, open-shell LED, HFLD
   Martin Brehm           : Molecular dynamics
   Dmytro Bykov           : SCF Hessian
   Vijay G. Chilkuri      : MRCI spin determinant printing, contributions to CSF-ICE
   Dipayan Datta          : RHF DLPNO-CCSD density
   Achintya Kumar Dutta   : EOM-CC, STEOM-CC
   Dmitry Ganyushin       : Spin-Orbit,Spin-Spin,Magnetic field MRCI
   Miquel Garcia          : C-PCM and meta-GGA Hessian, CC/C-PCM, Gaussian charge scheme
   Yang Guo               : DLPNO-NEVPT2, F12-NEVPT2, CIM, IAO-localization
   Andreas Hansen         : Spin unrestricted coupled pair/coupled cluster methods
   Benjamin Helmich-Paris : MC-RPA, TRAH-SCF, COSX integrals
   Lee Huntington         : MR-EOM, pCC
   Robert Izsak           : Overlap fitted RIJCOSX, COSX-SCS-MP3, EOM
   Marcus Kettner         : VPT2
   Christian Kollmar      : KDIIS, OOCD, Brueckner-CCSD(T), CCSD density, CASPT2, CASPT2-K
   Simone Kossmann        : Meta GGA functionals, TD-DFT gradient, OOMP2, MP2 Hessian
   Martin Krupicka        : Initial AUTO-CI
   Lucas Lang             : DCDCAS
   Marvin Lechner         : AUTO-CI (C++ implementation), FIC-MRCC
   Dagmar Lenk            : GEPOL surface, SMD
   Dimitrios Liakos       : Extrapolation schemes; Compound Job, initial MDCI parallelization
   Dimitrios Manganas     : Further ROCIS development; embedding schemes
   Dimitrios Pantazis     : SARC Basis sets
   Anastasios Papadopoulos: AUTO-CI, single reference methods and gradients
   Taras Petrenko         : DFT Hessian,TD-DFT gradient, ASA, ECA, R-Raman, ABS, FL, XAS/XES, NRVS
   Peter Pinski           : DLPNO-MP2, DLPNO-MP2 Gradient
   Christoph Reimann      : Effective Core Potentials
   Marius Retegan         : Local ZFS, SOC
   Christoph Riplinger    : Optimizer, TS searches, QM/MM, DLPNO-CCSD(T), (RO)-DLPNO pert. Triples
   Tobias Risthaus        : Range-separated hybrids, TD-DFT gradient, RPA, STAB
   Michael Roemelt        : Original ROCIS implementation
   Masaaki Saitow         : Open-shell DLPNO-CCSD energy and density
   Barbara Sandhoefer     : DKH picture change effects
   Avijit Sen             : IP-ROCIS
   Kantharuban Sivalingam : CASSCF convergence, NEVPT2, FIC-MRCI
   Bernardo de Souza      : ESD, SOC TD-DFT
   Georgi Stoychev        : AutoAux, RI-MP2 NMR, DLPNO-MP2 response
   Willem Van den Heuvel  : Paramagnetic NMR
   Boris Wezisla          : Elementary symmetry handling
   Frank Wennmohs         : Technical directorship


 We gratefully acknowledge several colleagues who have allowed us to
 interface, adapt or use parts of their codes:
   Stefan Grimme, W. Hujo, H. Kruse, P. Pracht,  : VdW corrections, initial TS optimization,
                  C. Bannwarth, S. Ehlert          DFT functionals, gCP, sTDA/sTD-DF
   Ed Valeev, F. Pavosevic, A. Kumar             : LibInt (2-el integral package), F12 methods
   Garnet Chan, S. Sharma, J. Yang, R. Olivares  : DMRG
   Ulf Ekstrom                                   : XCFun DFT Library
   Mihaly Kallay                                 : mrcc  (arbitrary order and MRCC methods)
   Jiri Pittner, Ondrej Demel                    : Mk-CCSD
   Frank Weinhold                                : gennbo (NPA and NBO analysis)
   Christopher J. Cramer and Donald G. Truhlar   : smd solvation model
   Lars Goerigk                                  : TD-DFT with DH, B97 family of functionals
   V. Asgeirsson, H. Jonsson                     : NEB implementation
   FAccTs GmbH                                   : IRC, NEB, NEB-TS, DLPNO-Multilevel, CI-OPT
                                                   MM, QMMM, 2- and 3-layer-ONIOM, Crystal-QMMM,
                                                   LR-CPCM, SF, NACMEs, symmetry and pop. for TD-DFT,
                                                   nearIR, NL-DFT gradient (VV10), updates on ESD,
                                                   ML-optimized integration grids
   S Lehtola, MJT Oliveira, MAL Marques          : LibXC Library
   Liviu Ungur et al                             : ANISO software


 Your calculation uses the libint2 library for the computation of 2-el integrals
 For citations please refer to: http://libint.valeyev.net

 Your ORCA version has been built with support for libXC version: 5.1.0
 For citations please refer to: https://tddft.org/programs/libxc/

 This ORCA versions uses:
   CBLAS   interface :  Fast vector & matrix operations
   LAPACKE interface :  Fast linear algebra routines
   Shared memory     :  Shared parallel matrices


================================================================================

----- Orbital basis set information -----
Your calculation utilizes the basis: def2-TZVP
   F. Weigend and R. Ahlrichs, Phys. Chem. Chem. Phys. 7, 3297 (2005).

================================================================================
                                        WARNINGS
                       Please study these warnings very carefully!
================================================================================


INFO   : the flag for use of the SHARK integral package has been found!

================================================================================
                                       INPUT FILE
================================================================================
NAME = def2tzvp2.inp
|  1> ! def2-tzvp HF
|  2> %output Print [ P_Overlap ] 1 end
|  3> * xyz 0 1
|  4> F 0.0 0.0 0.0
|  5> F 0.5 0.0 0.0
|  6> *
|  7> 
|  8>                          ****END OF INPUT****
================================================================================

                       ****************************
                       * Single Point Calculation *
                       ****************************

---------------------------------
CARTESIAN COORDINATES (ANGSTROEM)
---------------------------------
  F      0.000000    0.000000    0.000000
  F      0.500000    0.000000    0.000000

----------------------------
CARTESIAN COORDINATES (A.U.)
----------------------------
  NO LB      ZA    FRAG     MASS         X           Y           Z
   0 F     9.0000    0    18.998    0.000000    0.000000    0.000000
   1 F     9.0000    0    18.998    0.944863    0.000000    0.000000

--------------------------------
INTERNAL COORDINATES (ANGSTROEM)
--------------------------------
 F      0   0   0     0.000000000000     0.00000000     0.00000000
 F      1   0   0     0.500000000000     0.00000000     0.00000000

---------------------------
INTERNAL COORDINATES (A.U.)
---------------------------
 F      0   0   0     0.000000000000     0.00000000     0.00000000
 F      1   0   0     0.944863066961     0.00000000     0.00000000

---------------------
BASIS SET INFORMATION
---------------------
There are 1 groups of distinct atoms

 Group   1 Type F   : 11s6p2d1f contracted to 5s3p2d1f pattern {62111/411/11/1}

Atom   0F    basis set group =>   1
Atom   1F    basis set group =>   1
------------------------------------------------------------------------------
                           ORCA GTO INTEGRAL CALCULATION
------------------------------------------------------------------------------
------------------------------------------------------------------------------
                   ___                                                        
                  /   \      - P O W E R E D   B Y -                         
                 /     \                                                     
                 |  |  |   _    _      __       _____    __    __             
                 |  |  |  | |  | |    /  \     |  _  \  |  |  /  |          
                  \  \/   | |  | |   /    \    | | | |  |  | /  /          
                 / \  \   | |__| |  /  /\  \   | |_| |  |  |/  /          
                |  |  |   |  __  | /  /__\  \  |    /   |      \           
                |  |  |   | |  | | |   __   |  |    \   |  |\   \          
                \     /   | |  | | |  |  |  |  | |\  \  |  | \   \       
                 \___/    |_|  |_| |__|  |__|  |_| \__\ |__|  \__/        
                                                                              
                      - O R C A' S   B I G   F R I E N D -                    
                                      &                                       
                       - I N T E G R A L  F E E D E R -                       
                                                                              
 v1 FN, 2020, v2 2021                                                         
------------------------------------------------------------------------------


Reading SHARK input file def2tzvp2.SHARKINP.tmp ... ok
----------------------
SHARK INTEGRAL PACKAGE
----------------------

Number of atoms                             ...      2
Number of basis functions                   ...     62
Number of shells                            ...     22
Maximum angular momentum                    ...      3
Integral batch strategy                     ... SHARK/LIBINT Hybrid
RI-J (if used) integral strategy            ... SPLIT-RIJ (Revised 2003 algorithm where possible)
Printlevel                                  ...      1
Contraction scheme used                     ... SEGMENTED contraction
Coulomb Range Separation                    ... NOT USED
Exchange Range Separation                   ... NOT USED
Finite Nucleus Model                        ... NOT USED
Auxiliary Coulomb fitting basis             ... NOT available
Auxiliary J/K fitting basis                 ... NOT available
Auxiliary Correlation fitting basis         ... NOT available
Auxiliary 'external' fitting basis          ... NOT available
Integral threshold                          ...     1.000000e-10
Primitive cut-off                           ...     1.000000e-11
Primitive pair pre-selection threshold      ...     1.000000e-11

Calculating pre-screening integrals         ... done (  0.0 sec) Dimension = 22
Organizing shell pair data                  ... done (  0.0 sec)
Shell pair information
Total number of shell pairs                 ...       253
Shell pairs after pre-screening             ...       253
Total number of primitive shell pairs       ...       864
Primitive shell pairs kept                  ...       820
          la=0 lb=0:     55 shell pairs
          la=1 lb=0:     60 shell pairs
          la=1 lb=1:     21 shell pairs
          la=2 lb=0:     40 shell pairs
          la=2 lb=1:     24 shell pairs
          la=2 lb=2:     10 shell pairs
          la=3 lb=0:     20 shell pairs
          la=3 lb=1:     12 shell pairs
          la=3 lb=2:      8 shell pairs
          la=3 lb=3:      3 shell pairs

Calculating one electron integrals          ... done (  0.0 sec)
Calculating Nuclear repulsion               ... done (  0.0 sec) ENN=     85.726707744600 Eh

SHARK setup successfully completed in   0.1 seconds

Maximum memory used throughout the entire GTOINT-calculation: 12.6 MB
-------------------------------------------------------------------------------
                                 ORCA SCF
-------------------------------------------------------------------------------

------------
SCF SETTINGS
------------
Hamiltonian:
 Ab initio Hamiltonian  Method          .... Hartree-Fock(GTOs)


General Settings:
 Integral files         IntName         .... def2tzvp2
 Hartree-Fock type      HFTyp           .... RHF
 Total Charge           Charge          ....    0
 Multiplicity           Mult            ....    1
 Number of Electrons    NEL             ....   18
 Basis Dimension        Dim             ....   62
 Nuclear Repulsion      ENuc            ....     85.7267077446 Eh

Convergence Acceleration:
 DIIS                   CNVDIIS         .... on
   Start iteration      DIISMaxIt       ....    12
   Startup error        DIISStart       ....  0.200000
   # of expansion vecs  DIISMaxEq       ....     5
   Bias factor          DIISBfac        ....   1.050
   Max. coefficient     DIISMaxC        ....  10.000
 Trust-Rad. Augm. Hess. CNVTRAH         .... auto
   Auto Start mean grad. ratio tolernc. ....  1.125000
   Auto Start start iteration           ....    20
   Auto Start num. interpolation iter.  ....    10
   Max. Number of Micro iterations      ....    16
   Max. Number of Macro iterations      .... Maxiter - #DIIS iter
   Number of Davidson start vectors     ....     2
   Converg. threshold I  (grad. norm)   ....   5.000e-05
   Converg. threshold II (energy diff.) ....   1.000e-06
   Grad. Scal. Fac. for Micro threshold ....   0.100
   Minimum threshold for Micro iter.    ....   0.010
   NR start threshold (gradient norm)   ....   0.001
   Initial trust radius                 ....   0.400
   Minimum AH scaling param. (alpha)    ....   1.000
   Maximum AH scaling param. (alpha)    .... 1000.000
   Orbital update algorithm             .... Taylor
   White noise on init. David. guess    .... on
   Maximum white noise                  ....   0.010
   Quad. conv. algorithm                .... NR
 SOSCF                  CNVSOSCF        .... on
   Start iteration      SOSCFMaxIt      ....   150
   Startup grad/error   SOSCFStart      ....  0.003300
 Level Shifting         CNVShift        .... on
   Level shift para.    LevelShift      ....    0.2500
   Turn off err/grad.   ShiftErr        ....    0.0010
 Zerner damping         CNVZerner       .... off
 Static damping         CNVDamp         .... on
   Fraction old density DampFac         ....    0.7000
   Max. Damping (<1)    DampMax         ....    0.9800
   Min. Damping (>=0)   DampMin         ....    0.0000
   Turn off err/grad.   DampErr         ....    0.1000
 Fernandez-Rico         CNVRico         .... off

SCF Procedure:
 Maximum # iterations   MaxIter         ....   125
 SCF integral mode      SCFMode         .... Direct
   Integral package                     .... SHARK and LIBINT hybrid scheme
 Reset frequency        DirectResetFreq ....    20
 Integral Threshold     Thresh          ....  1.000e-10 Eh
 Primitive CutOff       TCut            ....  1.000e-11 Eh

Convergence Tolerance:
 Convergence Check Mode ConvCheckMode   .... Total+1el-Energy
 Convergence forced     ConvForced      .... 0
 Energy Change          TolE            ....  1.000e-06 Eh
 1-El. energy change                    ....  1.000e-03 Eh
 Orbital Gradient       TolG            ....  5.000e-05
 Orbital Rotation angle TolX            ....  5.000e-05
 DIIS Error             TolErr          ....  1.000e-06


Diagonalization of the overlap matrix:
Smallest eigenvalue                        ... 3.054e-05
Time for diagonalization                   ...    0.004 sec
Threshold for overlap eigenvalues          ... 1.000e-08
Number of eigenvalues below threshold      ... 0
Time for construction of square roots      ...    0.002 sec
Total time needed                          ...    0.006 sec

--------------
OVERLAP MATRIX
--------------
                  0          1          2          3          4          5    
      0       1.000000   0.680163   0.193167   0.099381   0.049865   0.000000
      1       0.680163   1.000000   0.550058   0.314729   0.165565   0.000000
      2       0.193167   0.550058   1.000000   0.856388   0.564114   0.000000
      3       0.099381   0.314729   0.856388   1.000000   0.853530   0.000000
      4       0.049865   0.165565   0.564114   0.853530   1.000000   0.000000
      5       0.000000   0.000000   0.000000   0.000000   0.000000   1.000000
      6       0.000000   0.000000   0.000000   0.000000   0.000000   0.000000
      7       0.000000   0.000000   0.000000   0.000000   0.000000   0.000000
      8       0.000000   0.000000   0.000000   0.000000   0.000000   0.600837
      9       0.000000   0.000000   0.000000   0.000000   0.000000   0.000000
     10       0.000000   0.000000   0.000000   0.000000   0.000000   0.000000
     11       0.000000   0.000000   0.000000   0.000000   0.000000   0.224991
     12       0.000000   0.000000   0.000000   0.000000   0.000000   0.000000
     13       0.000000   0.000000   0.000000   0.000000   0.000000   0.000000
     14       0.000000   0.000000   0.000000   0.000000   0.000000   0.000000
     15       0.000000   0.000000   0.000000   0.000000   0.000000   0.000000
     16       0.000000   0.000000   0.000000   0.000000   0.000000   0.000000
     17      -0.000000  -0.000000  -0.000000  -0.000000  -0.000000   0.000000
     18       0.000000   0.000000   0.000000   0.000000   0.000000   0.000000
     19      -0.000000  -0.000000   0.000000   0.000000   0.000000   0.000000
     20       0.000000   0.000000   0.000000   0.000000   0.000000   0.000000
     21       0.000000   0.000000   0.000000   0.000000   0.000000   0.000000
     22      -0.000000  -0.000000  -0.000000  -0.000000  -0.000000   0.000000
     23       0.000000   0.000000   0.000000   0.000000   0.000000   0.000000
     24       0.000000   0.000000   0.000000   0.000000   0.000000   0.000000
     25       0.000000   0.000000   0.000000   0.000000   0.000000   0.000000
     26       0.000000   0.000000   0.000000   0.000000   0.000000   0.000000
     27       0.000000   0.000000   0.000000   0.000000   0.000000  -0.000000
     28       0.000000   0.000000   0.000000   0.000000   0.000000   0.000000
     29       0.000000   0.000000   0.000000   0.000000   0.000000   0.000000
     30       0.000000   0.000000   0.000000   0.000000   0.000000   0.000000
     31       0.000000   0.001222   0.050861   0.057942   0.040282   0.000000
     32       0.001222   0.016187   0.168730   0.188621   0.134353   0.000000
     33       0.050861   0.168730   0.501959   0.579017   0.468543   0.000000
     34       0.057942   0.188621   0.579017   0.760871   0.731668   0.000000
     35       0.040282   0.134353   0.468543   0.731668   0.898295   0.000000
     36       0.000000   0.000000   0.000000   0.000000   0.000000   0.309498
     37      -0.082148  -0.258848  -0.458890  -0.271742  -0.095453   0.000000
     38       0.000000   0.000000   0.000000   0.000000   0.000000   0.000000
     39       0.000000   0.000000   0.000000   0.000000   0.000000   0.379117
     40      -0.089722  -0.275306  -0.625927  -0.554276  -0.288673   0.000000
     41       0.000000   0.000000   0.000000   0.000000   0.000000   0.000000
     42       0.000000   0.000000   0.000000   0.000000   0.000000   0.188746
     43      -0.033325  -0.109271  -0.346501  -0.463803  -0.416964   0.000000
     44       0.000000   0.000000   0.000000   0.000000   0.000000   0.000000
     45      -0.064990  -0.169723  -0.128475  -0.035114  -0.005017   0.000000
     46       0.000000   0.000000   0.000000   0.000000   0.000000  -0.402442
     47       0.000000   0.000000   0.000000   0.000000   0.000000   0.000000
     48       0.112566   0.293968   0.222525   0.060820   0.008689   0.000000
     49       0.000000   0.000000   0.000000   0.000000   0.000000   0.000000
     50      -0.050891  -0.142930  -0.209419  -0.109305  -0.027015   0.000000
     51       0.000000   0.000000   0.000000   0.000000   0.000000  -0.509420
     52       0.000000   0.000000   0.000000   0.000000   0.000000   0.000000
     53       0.088145   0.247562   0.362724   0.189322   0.046791   0.000000
     54       0.000000   0.000000   0.000000   0.000000   0.000000   0.000000
     55       0.000000   0.000000   0.000000   0.000000   0.000000  -0.304170
     56       0.108957   0.241688   0.116163   0.021047   0.001614   0.000000
     57       0.000000   0.000000   0.000000   0.000000   0.000000   0.000000
     58       0.000000   0.000000   0.000000   0.000000   0.000000   0.392682
     59       0.000000   0.000000   0.000000   0.000000   0.000000   0.000000
     60       0.140663   0.312018   0.149966   0.027171   0.002084   0.000000
     61       0.000000   0.000000   0.000000   0.000000   0.000000   0.000000
                  6          7          8          9         10         11    
      0       0.000000   0.000000   0.000000   0.000000   0.000000   0.000000
      1       0.000000   0.000000   0.000000   0.000000   0.000000   0.000000
      2       0.000000   0.000000   0.000000   0.000000   0.000000   0.000000
      3       0.000000   0.000000   0.000000   0.000000   0.000000   0.000000
      4       0.000000   0.000000   0.000000   0.000000   0.000000   0.000000
      5       0.000000   0.000000   0.600837   0.000000   0.000000   0.224991
      6       1.000000   0.000000   0.000000   0.600837   0.000000   0.000000
      7       0.000000   1.000000   0.000000   0.000000   0.600837   0.000000
      8       0.000000   0.000000   1.000000   0.000000   0.000000   0.684596
      9       0.600837   0.000000   0.000000   1.000000   0.000000   0.000000
     10       0.000000   0.600837   0.000000   0.000000   1.000000   0.000000
     11       0.000000   0.000000   0.684596   0.000000   0.000000   1.000000
     12       0.224991   0.000000   0.000000   0.684596   0.000000   0.000000
     13       0.000000   0.224991   0.000000   0.000000   0.684596   0.000000
     14       0.000000   0.000000   0.000000   0.000000   0.000000   0.000000
     15       0.000000   0.000000   0.000000   0.000000   0.000000   0.000000
     16       0.000000   0.000000   0.000000   0.000000   0.000000   0.000000
     17       0.000000   0.000000   0.000000   0.000000   0.000000   0.000000
     18       0.000000   0.000000   0.000000   0.000000   0.000000   0.000000
     19       0.000000   0.000000   0.000000   0.000000   0.000000   0.000000
     20       0.000000   0.000000   0.000000   0.000000   0.000000   0.000000
     21       0.000000   0.000000   0.000000   0.000000   0.000000   0.000000
     22       0.000000   0.000000   0.000000   0.000000   0.000000   0.000000
     23       0.000000   0.000000   0.000000   0.000000   0.000000   0.000000
     24       0.000000   0.000000   0.000000   0.000000   0.000000   0.000000
     25       0.000000   0.000000   0.000000   0.000000   0.000000   0.000000
     26       0.000000   0.000000   0.000000   0.000000   0.000000   0.000000
     27       0.000000   0.000000  -0.000000   0.000000   0.000000  -0.000000
     28       0.000000   0.000000   0.000000   0.000000   0.000000   0.000000
     29       0.000000   0.000000   0.000000   0.000000   0.000000   0.000000
     30       0.000000   0.000000   0.000000   0.000000  -0.000000   0.000000
     31       0.082148   0.000000   0.000000   0.089722   0.000000   0.000000
     32       0.258848   0.000000   0.000000   0.275306   0.000000   0.000000
     33       0.458890   0.000000   0.000000   0.625927   0.000000   0.000000
     34       0.271742   0.000000   0.000000   0.554276   0.000000   0.000000
     35       0.095453   0.000000   0.000000   0.288673   0.000000   0.000000
     36       0.000000   0.000000   0.379117   0.000000   0.000000   0.188746
     37      -0.347398   0.000000   0.000000   0.030420   0.000000   0.000000
     38       0.000000   0.309498   0.000000   0.000000   0.379117   0.000000
     39       0.000000   0.000000   0.741601   0.000000   0.000000   0.591557
     40       0.030420   0.000000   0.000000   0.298207   0.000000   0.000000
     41       0.000000   0.379117   0.000000   0.000000   0.741601   0.000000
     42       0.000000   0.000000   0.591557   0.000000   0.000000   0.907876
     43       0.122441   0.000000   0.000000   0.418738   0.000000   0.000000
     44       0.000000   0.188746   0.000000   0.000000   0.591557   0.000000
     45      -0.067181   0.000000   0.000000   0.054040   0.000000   0.000000
     46       0.000000   0.000000  -0.184202   0.000000   0.000000  -0.030999
     47       0.000000   0.000000   0.000000   0.000000   0.000000   0.000000
     48       0.116360   0.000000   0.000000  -0.093599   0.000000   0.000000
     49       0.000000  -0.402442   0.000000   0.000000  -0.184202   0.000000
     50       0.129834   0.000000   0.000000   0.206764   0.000000   0.000000
     51       0.000000   0.000000  -0.538757   0.000000   0.000000  -0.174895
     52       0.000000   0.000000   0.000000   0.000000   0.000000   0.000000
     53      -0.224878   0.000000   0.000000  -0.358126   0.000000   0.000000
     54       0.000000  -0.509420   0.000000   0.000000  -0.538757   0.000000
     55       0.000000   0.000000  -0.081968   0.000000   0.000000  -0.006506
     56      -0.120014   0.000000   0.000000  -0.070735   0.000000   0.000000
     57       0.000000  -0.124177   0.000000   0.000000  -0.033463   0.000000
     58       0.000000   0.000000   0.105820   0.000000   0.000000   0.008399
     59       0.000000   0.000000   0.000000   0.000000   0.000000   0.000000
     60      -0.154937   0.000000   0.000000  -0.091318   0.000000   0.000000
     61       0.000000  -0.480935   0.000000   0.000000  -0.129602   0.000000
                 12         13         14         15         16         17    
      0       0.000000   0.000000   0.000000   0.000000   0.000000  -0.000000
      1       0.000000   0.000000   0.000000   0.000000   0.000000  -0.000000
      2       0.000000   0.000000   0.000000   0.000000   0.000000  -0.000000
      3       0.000000   0.000000   0.000000   0.000000   0.000000  -0.000000
      4       0.000000   0.000000   0.000000   0.000000   0.000000  -0.000000
      5       0.000000   0.000000   0.000000   0.000000   0.000000   0.000000
      6       0.224991   0.000000   0.000000   0.000000   0.000000   0.000000
      7       0.000000   0.224991   0.000000   0.000000   0.000000   0.000000
      8       0.000000   0.000000   0.000000   0.000000   0.000000   0.000000
      9       0.684596   0.000000   0.000000   0.000000   0.000000   0.000000
     10       0.000000   0.684596   0.000000   0.000000   0.000000   0.000000
     11       0.000000   0.000000   0.000000   0.000000   0.000000   0.000000
     12       1.000000   0.000000   0.000000   0.000000   0.000000   0.000000
     13       0.000000   1.000000   0.000000   0.000000   0.000000   0.000000
     14       0.000000   0.000000   1.000000   0.000000   0.000000   0.000000
     15       0.000000   0.000000   0.000000   1.000000   0.000000   0.000000
     16       0.000000   0.000000   0.000000   0.000000   1.000000   0.000000
     17       0.000000   0.000000   0.000000   0.000000   0.000000   1.000000
     18       0.000000   0.000000   0.000000   0.000000   0.000000   0.000000
     19       0.000000   0.000000   0.505175   0.000000   0.000000  -0.000000
     20       0.000000   0.000000   0.000000   0.505175   0.000000   0.000000
     21       0.000000   0.000000   0.000000   0.000000   0.505175   0.000000
     22       0.000000   0.000000   0.000000   0.000000   0.000000   0.505175
     23       0.000000   0.000000   0.000000   0.000000   0.000000   0.000000
     24       0.000000   0.000000   0.000000   0.000000   0.000000   0.000000
     25      -0.000000   0.000000   0.000000   0.000000   0.000000   0.000000
     26       0.000000  -0.000000   0.000000   0.000000   0.000000   0.000000
     27       0.000000   0.000000   0.000000   0.000000   0.000000   0.000000
     28       0.000000   0.000000   0.000000   0.000000   0.000000   0.000000
     29      -0.000000   0.000000   0.000000   0.000000   0.000000   0.000000
     30       0.000000   0.000000   0.000000   0.000000   0.000000   0.000000
     31       0.033325   0.000000  -0.064990   0.000000   0.000000   0.112566
     32       0.109271   0.000000  -0.169723   0.000000   0.000000   0.293968
     33       0.346501   0.000000  -0.128475   0.000000   0.000000   0.222525
     34       0.463803   0.000000  -0.035114   0.000000   0.000000   0.060820
     35       0.416964   0.000000  -0.005017   0.000000   0.000000   0.008689
     36       0.000000   0.000000   0.000000   0.402442   0.000000   0.000000
     37       0.122441   0.000000   0.067181   0.000000   0.000000  -0.116360
     38       0.000000   0.188746   0.000000   0.000000   0.000000   0.000000
     39       0.000000   0.000000   0.000000   0.184202   0.000000   0.000000
     40       0.418738   0.000000  -0.054040   0.000000   0.000000   0.093599
     41       0.000000   0.591557   0.000000   0.000000   0.000000   0.000000
     42       0.000000   0.000000   0.000000   0.030999   0.000000   0.000000
     43       0.732387   0.000000  -0.014663   0.000000   0.000000   0.025397
     44       0.000000   0.907876   0.000000   0.000000   0.000000   0.000000
     45       0.014663   0.000000   0.179031   0.000000   0.000000   0.122654
     46       0.000000   0.000000   0.000000  -0.443182   0.000000   0.000000
     47       0.000000   0.000000   0.000000   0.000000   0.249846   0.000000
     48      -0.025397   0.000000   0.122654   0.000000   0.000000   0.037402
     49       0.000000  -0.030999   0.000000   0.000000   0.000000   0.000000
     50       0.085402   0.000000   0.200003   0.000000   0.000000   0.134466
     51       0.000000   0.000000   0.000000  -0.054745   0.000000   0.000000
     52       0.000000   0.000000   0.000000   0.000000   0.277637   0.000000
     53      -0.147920   0.000000   0.134466   0.000000   0.000000   0.044735
     54       0.000000  -0.174895   0.000000   0.000000   0.000000   0.000000
     55       0.000000   0.000000   0.000000  -0.022960   0.000000   0.000000
     56      -0.007045   0.000000  -0.365550   0.000000   0.000000  -0.169320
     57       0.000000  -0.002656   0.000000   0.000000   0.000000   0.000000
     58       0.000000   0.000000   0.000000   0.029642   0.000000   0.000000
     59       0.000000   0.000000   0.000000   0.000000  -0.507528   0.000000
     60      -0.009095   0.000000   0.245829   0.000000   0.000000   0.195803
     61       0.000000  -0.010286   0.000000   0.000000   0.000000   0.000000
                 18         19         20         21         22         23    
      0       0.000000  -0.000000   0.000000   0.000000  -0.000000   0.000000
      1       0.000000  -0.000000   0.000000   0.000000  -0.000000   0.000000
      2       0.000000   0.000000   0.000000   0.000000  -0.000000   0.000000
      3       0.000000   0.000000   0.000000   0.000000  -0.000000   0.000000
      4       0.000000   0.000000   0.000000   0.000000  -0.000000   0.000000
      5       0.000000   0.000000   0.000000   0.000000   0.000000   0.000000
      6       0.000000   0.000000   0.000000   0.000000   0.000000   0.000000
      7       0.000000   0.000000   0.000000   0.000000   0.000000   0.000000
      8       0.000000   0.000000   0.000000   0.000000   0.000000   0.000000
      9       0.000000   0.000000   0.000000   0.000000   0.000000   0.000000
     10       0.000000   0.000000   0.000000   0.000000   0.000000   0.000000
     11       0.000000   0.000000   0.000000   0.000000   0.000000   0.000000
     12       0.000000   0.000000   0.000000   0.000000   0.000000   0.000000
     13       0.000000   0.000000   0.000000   0.000000   0.000000   0.000000
     14       0.000000   0.505175   0.000000   0.000000   0.000000   0.000000
     15       0.000000   0.000000   0.505175   0.000000   0.000000   0.000000
     16       0.000000   0.000000   0.000000   0.505175   0.000000   0.000000
     17       0.000000  -0.000000   0.000000   0.000000   0.505175   0.000000
     18       1.000000   0.000000   0.000000   0.000000   0.000000   0.505175
     19       0.000000   1.000000   0.000000   0.000000   0.000000   0.000000
     20       0.000000   0.000000   1.000000   0.000000   0.000000   0.000000
     21       0.000000   0.000000   0.000000   1.000000   0.000000   0.000000
     22       0.000000   0.000000   0.000000   0.000000   1.000000   0.000000
     23       0.505175   0.000000   0.000000   0.000000   0.000000   1.000000
     24       0.000000   0.000000   0.000000   0.000000   0.000000   0.000000
     25       0.000000   0.000000   0.000000   0.000000   0.000000   0.000000
     26       0.000000   0.000000   0.000000   0.000000   0.000000   0.000000
     27       0.000000   0.000000   0.000000   0.000000   0.000000   0.000000
     28       0.000000   0.000000   0.000000   0.000000   0.000000   0.000000
     29       0.000000   0.000000   0.000000   0.000000   0.000000   0.000000
     30       0.000000   0.000000   0.000000   0.000000   0.000000   0.000000
     31       0.000000  -0.050891   0.000000   0.000000   0.088145   0.000000
     32       0.000000  -0.142930   0.000000   0.000000   0.247562   0.000000
     33       0.000000  -0.209419   0.000000   0.000000   0.362724   0.000000
     34       0.000000  -0.109305   0.000000   0.000000   0.189322   0.000000
     35       0.000000  -0.027015   0.000000   0.000000   0.046791   0.000000
     36       0.000000   0.000000   0.509420   0.000000   0.000000   0.000000
     37       0.000000  -0.129834   0.000000   0.000000   0.224878   0.000000
     38       0.402442   0.000000   0.000000   0.000000   0.000000   0.509420
     39       0.000000   0.000000   0.538757   0.000000   0.000000   0.000000
     40       0.000000  -0.206764   0.000000   0.000000   0.358126   0.000000
     41       0.184202   0.000000   0.000000   0.000000   0.000000   0.538757
     42       0.000000   0.000000   0.174895   0.000000   0.000000   0.000000
     43       0.000000  -0.085402   0.000000   0.000000   0.147920   0.000000
     44       0.030999   0.000000   0.000000   0.000000   0.000000   0.174895
     45       0.000000   0.200003   0.000000   0.000000   0.134466   0.000000
     46       0.000000   0.000000  -0.054745   0.000000   0.000000   0.000000
     47       0.000000   0.000000   0.000000   0.277637   0.000000   0.000000
     48       0.000000   0.134466   0.000000   0.000000   0.044735   0.000000
     49      -0.443182   0.000000   0.000000   0.000000   0.000000  -0.054745
     50       0.000000   0.542166   0.000000   0.000000   0.243462   0.000000
     51       0.000000   0.000000   0.161592   0.000000   0.000000   0.000000
     52       0.000000   0.000000   0.000000   0.682729   0.000000   0.000000
     53       0.000000   0.243462   0.000000   0.000000   0.261040   0.000000
     54      -0.054745   0.000000   0.000000   0.000000   0.000000   0.161592
     55       0.000000   0.000000   0.131861   0.000000   0.000000   0.000000
     56       0.000000  -0.309075   0.000000   0.000000  -0.034774   0.000000
     57      -0.009374   0.000000   0.000000   0.000000   0.000000   0.053832
     58       0.000000   0.000000  -0.170232   0.000000   0.000000   0.000000
     59       0.000000   0.000000   0.000000  -0.360568   0.000000   0.000000
     60       0.000000   0.110906   0.000000   0.000000   0.249509   0.000000
     61      -0.036303   0.000000   0.000000   0.000000   0.000000   0.208491
                 24         25         26         27         28         29    
      0       0.000000   0.000000   0.000000   0.000000   0.000000   0.000000
      1       0.000000   0.000000   0.000000   0.000000   0.000000   0.000000
      2       0.000000   0.000000   0.000000   0.000000   0.000000   0.000000
      3       0.000000   0.000000   0.000000   0.000000   0.000000   0.000000
      4       0.000000   0.000000   0.000000   0.000000   0.000000   0.000000
      5       0.000000   0.000000   0.000000  -0.000000   0.000000   0.000000
      6       0.000000   0.000000   0.000000   0.000000   0.000000   0.000000
      7       0.000000   0.000000   0.000000   0.000000   0.000000   0.000000
      8       0.000000   0.000000   0.000000  -0.000000   0.000000   0.000000
      9       0.000000   0.000000   0.000000   0.000000   0.000000   0.000000
     10       0.000000   0.000000   0.000000   0.000000   0.000000   0.000000
     11       0.000000   0.000000   0.000000  -0.000000   0.000000   0.000000
     12       0.000000  -0.000000   0.000000   0.000000   0.000000  -0.000000
     13       0.000000   0.000000  -0.000000   0.000000   0.000000   0.000000
     14       0.000000   0.000000   0.000000   0.000000   0.000000   0.000000
     15       0.000000   0.000000   0.000000   0.000000   0.000000   0.000000
     16       0.000000   0.000000   0.000000   0.000000   0.000000   0.000000
     17       0.000000   0.000000   0.000000   0.000000   0.000000   0.000000
     18       0.000000   0.000000   0.000000   0.000000   0.000000   0.000000
     19       0.000000   0.000000   0.000000   0.000000   0.000000   0.000000
     20       0.000000   0.000000   0.000000   0.000000   0.000000   0.000000
     21       0.000000   0.000000   0.000000   0.000000   0.000000   0.000000
     22       0.000000   0.000000   0.000000   0.000000   0.000000   0.000000
     23       0.000000   0.000000   0.000000   0.000000   0.000000   0.000000
     24       1.000000   0.000000   0.000000   0.000000   0.000000   0.000000
     25       0.000000   1.000000   0.000000   0.000000   0.000000   0.000000
     26       0.000000   0.000000   1.000000   0.000000   0.000000   0.000000
     27       0.000000   0.000000   0.000000   1.000000   0.000000   0.000000
     28       0.000000   0.000000   0.000000   0.000000   1.000000   0.000000
     29       0.000000   0.000000   0.000000   0.000000   0.000000   1.000000
     30       0.000000   0.000000   0.000000   0.000000   0.000000   0.000000
     31       0.000000  -0.108957   0.000000   0.000000   0.000000  -0.140663
     32       0.000000  -0.241688   0.000000   0.000000   0.000000  -0.312018
     33       0.000000  -0.116163   0.000000   0.000000   0.000000  -0.149966
     34       0.000000  -0.021047   0.000000   0.000000   0.000000  -0.027171
     35       0.000000  -0.001614   0.000000   0.000000   0.000000  -0.002084
     36      -0.304170   0.000000   0.000000   0.392682   0.000000   0.000000
     37       0.000000  -0.120014   0.000000   0.000000   0.000000  -0.154937
     38       0.000000   0.000000  -0.124177   0.000000   0.000000   0.000000
     39      -0.081968   0.000000   0.000000   0.105820   0.000000   0.000000
     40       0.000000  -0.070735   0.000000   0.000000   0.000000  -0.091318
     41       0.000000   0.000000  -0.033463   0.000000   0.000000   0.000000
     42      -0.006506   0.000000   0.000000   0.008399   0.000000   0.000000
     43       0.000000  -0.007045   0.000000   0.000000   0.000000  -0.009095
     44       0.000000   0.000000  -0.002656   0.000000   0.000000   0.000000
     45       0.000000   0.365550   0.000000   0.000000   0.000000  -0.245829
     46       0.022960   0.000000   0.000000  -0.029642   0.000000   0.000000
     47       0.000000   0.000000   0.000000   0.000000   0.507528   0.000000
     48       0.000000   0.169320   0.000000   0.000000   0.000000  -0.195803
     49       0.000000   0.000000   0.009374   0.000000   0.000000   0.000000
     50       0.000000   0.309075   0.000000   0.000000   0.000000  -0.110906
     51      -0.131861   0.000000   0.000000   0.170232   0.000000   0.000000
     52       0.000000   0.000000   0.000000   0.000000   0.360568   0.000000
     53       0.000000   0.034774   0.000000   0.000000   0.000000  -0.249509
     54       0.000000   0.000000  -0.053832   0.000000   0.000000   0.000000
     55       0.175300   0.000000   0.000000   0.322334   0.000000   0.000000
     56       0.000000  -0.293727   0.000000   0.000000   0.000000   0.011124
     57       0.000000   0.000000   0.383365   0.000000   0.000000   0.000000
     58       0.322334   0.000000   0.000000   0.008847   0.000000   0.000000
     59       0.000000   0.000000   0.000000   0.000000  -0.302344   0.000000
     60       0.000000   0.011124   0.000000   0.000000   0.000000  -0.287982
     61       0.000000   0.000000  -0.161167   0.000000   0.000000   0.000000
                 30         31         32         33         34         35    
      0       0.000000   0.000000   0.001222   0.050861   0.057942   0.040282
      1       0.000000   0.001222   0.016187   0.168730   0.188621   0.134353
      2       0.000000   0.050861   0.168730   0.501959   0.579017   0.468543
      3       0.000000   0.057942   0.188621   0.579017   0.760871   0.731668
      4       0.000000   0.040282   0.134353   0.468543   0.731668   0.898295
      5       0.000000   0.000000   0.000000   0.000000   0.000000   0.000000
      6       0.000000   0.082148   0.258848   0.458890   0.271742   0.095453
      7       0.000000   0.000000   0.000000   0.000000   0.000000   0.000000
      8       0.000000   0.000000   0.000000   0.000000   0.000000   0.000000
      9       0.000000   0.089722   0.275306   0.625927   0.554276   0.288673
     10      -0.000000   0.000000   0.000000   0.000000   0.000000   0.000000
     11       0.000000   0.000000   0.000000   0.000000   0.000000   0.000000
     12       0.000000   0.033325   0.109271   0.346501   0.463803   0.416964
     13       0.000000   0.000000   0.000000   0.000000   0.000000   0.000000
     14       0.000000  -0.064990  -0.169723  -0.128475  -0.035114  -0.005017
     15       0.000000   0.000000   0.000000   0.000000   0.000000   0.000000
     16       0.000000   0.000000   0.000000   0.000000   0.000000   0.000000
     17       0.000000   0.112566   0.293968   0.222525   0.060820   0.008689
     18       0.000000   0.000000   0.000000   0.000000   0.000000   0.000000
     19       0.000000  -0.050891  -0.142930  -0.209419  -0.109305  -0.027015
     20       0.000000   0.000000   0.000000   0.000000   0.000000   0.000000
     21       0.000000   0.000000   0.000000   0.000000   0.000000   0.000000
     22       0.000000   0.088145   0.247562   0.362724   0.189322   0.046791
     23       0.000000   0.000000   0.000000   0.000000   0.000000   0.000000
     24       0.000000   0.000000   0.000000   0.000000   0.000000   0.000000
     25       0.000000  -0.108957  -0.241688  -0.116163  -0.021047  -0.001614
     26       0.000000   0.000000   0.000000   0.000000   0.000000   0.000000
     27       0.000000   0.000000   0.000000   0.000000   0.000000   0.000000
     28       0.000000   0.000000   0.000000   0.000000   0.000000   0.000000
     29       0.000000  -0.140663  -0.312018  -0.149966  -0.027171  -0.002084
     30       1.000000   0.000000   0.000000   0.000000   0.000000   0.000000
     31       0.000000   1.000000   0.680163   0.193167   0.099381   0.049865
     32       0.000000   0.680163   1.000000   0.550058   0.314729   0.165565
     33       0.000000   0.193167   0.550058   1.000000   0.856388   0.564114
     34       0.000000   0.099381   0.314729   0.856388   1.000000   0.853530
     35       0.000000   0.049865   0.165565   0.564114   0.853530   1.000000
     36       0.000000   0.000000   0.000000   0.000000   0.000000   0.000000
     37       0.000000   0.000000  -0.000000   0.000000  -0.000000  -0.000000
     38      -0.480935   0.000000   0.000000   0.000000   0.000000   0.000000
     39       0.000000   0.000000   0.000000   0.000000   0.000000   0.000000
     40       0.000000   0.000000   0.000000   0.000000  -0.000000  -0.000000
     41      -0.129602   0.000000   0.000000   0.000000   0.000000   0.000000
     42       0.000000   0.000000   0.000000   0.000000   0.000000   0.000000
     43       0.000000  -0.000000  -0.000000  -0.000000   0.000000  -0.000000
     44      -0.010286   0.000000   0.000000   0.000000   0.000000   0.000000
     45       0.000000   0.000000   0.000000   0.000000   0.000000   0.000000
     46       0.000000   0.000000   0.000000   0.000000   0.000000   0.000000
     47       0.000000   0.000000   0.000000   0.000000   0.000000   0.000000
     48       0.000000  -0.000000  -0.000000  -0.000000  -0.000000  -0.000000
     49       0.036303   0.000000   0.000000   0.000000   0.000000   0.000000
     50       0.000000  -0.000000  -0.000000   0.000000   0.000000   0.000000
     51       0.000000   0.000000   0.000000   0.000000   0.000000   0.000000
     52       0.000000   0.000000   0.000000   0.000000   0.000000   0.000000
     53       0.000000  -0.000000  -0.000000  -0.000000  -0.000000  -0.000000
     54      -0.208491   0.000000   0.000000   0.000000   0.000000   0.000000
     55       0.000000   0.000000   0.000000   0.000000   0.000000   0.000000
     56       0.000000   0.000000   0.000000  -0.000000   0.000000   0.000000
     57      -0.161167   0.000000   0.000000   0.000000   0.000000   0.000000
     58       0.000000   0.000000   0.000000   0.000000   0.000000   0.000000
     59       0.000000   0.000000   0.000000   0.000000   0.000000   0.000000
     60       0.000000   0.000000   0.000000  -0.000000   0.000000   0.000000
     61      -0.199219   0.000000   0.000000   0.000000   0.000000   0.000000
                 36         37         38         39         40         41    
      0       0.000000  -0.082148   0.000000   0.000000  -0.089722   0.000000
      1       0.000000  -0.258848   0.000000   0.000000  -0.275306   0.000000
      2       0.000000  -0.458890   0.000000   0.000000  -0.625927   0.000000
      3       0.000000  -0.271742   0.000000   0.000000  -0.554276   0.000000
      4       0.000000  -0.095453   0.000000   0.000000  -0.288673   0.000000
      5       0.309498   0.000000   0.000000   0.379117   0.000000   0.000000
      6       0.000000  -0.347398   0.000000   0.000000   0.030420   0.000000
      7       0.000000   0.000000   0.309498   0.000000   0.000000   0.379117
      8       0.379117   0.000000   0.000000   0.741601   0.000000   0.000000
      9       0.000000   0.030420   0.000000   0.000000   0.298207   0.000000
     10       0.000000   0.000000   0.379117   0.000000   0.000000   0.741601
     11       0.188746   0.000000   0.000000   0.591557   0.000000   0.000000
     12       0.000000   0.122441   0.000000   0.000000   0.418738   0.000000
     13       0.000000   0.000000   0.188746   0.000000   0.000000   0.591557
     14       0.000000   0.067181   0.000000   0.000000  -0.054040   0.000000
     15       0.402442   0.000000   0.000000   0.184202   0.000000   0.000000
     16       0.000000   0.000000   0.000000   0.000000   0.000000   0.000000
     17       0.000000  -0.116360   0.000000   0.000000   0.093599   0.000000
     18       0.000000   0.000000   0.402442   0.000000   0.000000   0.184202
     19       0.000000  -0.129834   0.000000   0.000000  -0.206764   0.000000
     20       0.509420   0.000000   0.000000   0.538757   0.000000   0.000000
     21       0.000000   0.000000   0.000000   0.000000   0.000000   0.000000
     22       0.000000   0.224878   0.000000   0.000000   0.358126   0.000000
     23       0.000000   0.000000   0.509420   0.000000   0.000000   0.538757
     24      -0.304170   0.000000   0.000000  -0.081968   0.000000   0.000000
     25       0.000000  -0.120014   0.000000   0.000000  -0.070735   0.000000
     26       0.000000   0.000000  -0.124177   0.000000   0.000000  -0.033463
     27       0.392682   0.000000   0.000000   0.105820   0.000000   0.000000
     28       0.000000   0.000000   0.000000   0.000000   0.000000   0.000000
     29       0.000000  -0.154937   0.000000   0.000000  -0.091318   0.000000
     30       0.000000   0.000000  -0.480935   0.000000   0.000000  -0.129602
     31       0.000000   0.000000   0.000000   0.000000   0.000000   0.000000
     32       0.000000  -0.000000   0.000000   0.000000   0.000000   0.000000
     33       0.000000   0.000000   0.000000   0.000000   0.000000   0.000000
     34       0.000000  -0.000000   0.000000   0.000000  -0.000000   0.000000
     35       0.000000  -0.000000   0.000000   0.000000  -0.000000   0.000000
     36       1.000000   0.000000   0.000000   0.600837   0.000000   0.000000
     37       0.000000   1.000000   0.000000   0.000000   0.600837   0.000000
     38       0.000000   0.000000   1.000000   0.000000   0.000000   0.600837
     39       0.600837   0.000000   0.000000   1.000000   0.000000   0.000000
     40       0.000000   0.600837   0.000000   0.000000   1.000000   0.000000
     41       0.000000   0.000000   0.600837   0.000000   0.000000   1.000000
     42       0.224991   0.000000   0.000000   0.684596   0.000000   0.000000
     43       0.000000   0.224991   0.000000   0.000000   0.684596   0.000000
     44       0.000000   0.000000   0.224991   0.000000   0.000000   0.684596
     45       0.000000   0.000000   0.000000   0.000000   0.000000   0.000000
     46      -0.000000   0.000000   0.000000   0.000000   0.000000   0.000000
     47       0.000000   0.000000   0.000000   0.000000   0.000000   0.000000
     48       0.000000  -0.000000   0.000000   0.000000   0.000000   0.000000
     49       0.000000   0.000000  -0.000000   0.000000   0.000000   0.000000
     50       0.000000   0.000000   0.000000   0.000000   0.000000   0.000000
     51      -0.000000   0.000000   0.000000  -0.000000   0.000000   0.000000
     52       0.000000   0.000000   0.000000   0.000000   0.000000   0.000000
     53       0.000000  -0.000000   0.000000   0.000000  -0.000000   0.000000
     54       0.000000   0.000000  -0.000000   0.000000   0.000000  -0.000000
     55       0.000000   0.000000   0.000000   0.000000   0.000000   0.000000
     56       0.000000   0.000000   0.000000   0.000000   0.000000   0.000000
     57       0.000000   0.000000   0.000000   0.000000   0.000000   0.000000
     58      -0.000000   0.000000   0.000000  -0.000000   0.000000   0.000000
     59       0.000000   0.000000   0.000000   0.000000   0.000000   0.000000
     60       0.000000   0.000000   0.000000   0.000000   0.000000   0.000000
     61       0.000000   0.000000   0.000000   0.000000   0.000000  -0.000000
                 42         43         44         45         46         47    
      0       0.000000  -0.033325   0.000000  -0.064990   0.000000   0.000000
      1       0.000000  -0.109271   0.000000  -0.169723   0.000000   0.000000
      2       0.000000  -0.346501   0.000000  -0.128475   0.000000   0.000000
      3       0.000000  -0.463803   0.000000  -0.035114   0.000000   0.000000
      4       0.000000  -0.416964   0.000000  -0.005017   0.000000   0.000000
      5       0.188746   0.000000   0.000000   0.000000  -0.402442   0.000000
      6       0.000000   0.122441   0.000000  -0.067181   0.000000   0.000000
      7       0.000000   0.000000   0.188746   0.000000   0.000000   0.000000
      8       0.591557   0.000000   0.000000   0.000000  -0.184202   0.000000
      9       0.000000   0.418738   0.000000   0.054040   0.000000   0.000000
     10       0.000000   0.000000   0.591557   0.000000   0.000000   0.000000
     11       0.907876   0.000000   0.000000   0.000000  -0.030999   0.000000
     12       0.000000   0.732387   0.000000   0.014663   0.000000   0.000000
     13       0.000000   0.000000   0.907876   0.000000   0.000000   0.000000
     14       0.000000  -0.014663   0.000000   0.179031   0.000000   0.000000
     15       0.030999   0.000000   0.000000   0.000000  -0.443182   0.000000
     16       0.000000   0.000000   0.000000   0.000000   0.000000   0.249846
     17       0.000000   0.025397   0.000000   0.122654   0.000000   0.000000
     18       0.000000   0.000000   0.030999   0.000000   0.000000   0.000000
     19       0.000000  -0.085402   0.000000   0.200003   0.000000   0.000000
     20       0.174895   0.000000   0.000000   0.000000  -0.054745   0.000000
     21       0.000000   0.000000   0.000000   0.000000   0.000000   0.277637
     22       0.000000   0.147920   0.000000   0.134466   0.000000   0.000000
     23       0.000000   0.000000   0.174895   0.000000   0.000000   0.000000
     24      -0.006506   0.000000   0.000000   0.000000   0.022960   0.000000
     25       0.000000  -0.007045   0.000000   0.365550   0.000000   0.000000
     26       0.000000   0.000000  -0.002656   0.000000   0.000000   0.000000
     27       0.008399   0.000000   0.000000   0.000000  -0.029642   0.000000
     28       0.000000   0.000000   0.000000   0.000000   0.000000   0.507528
     29       0.000000  -0.009095   0.000000  -0.245829   0.000000   0.000000
     30       0.000000   0.000000  -0.010286   0.000000   0.000000   0.000000
     31       0.000000  -0.000000   0.000000   0.000000   0.000000   0.000000
     32       0.000000  -0.000000   0.000000   0.000000   0.000000   0.000000
     33       0.000000  -0.000000   0.000000   0.000000   0.000000   0.000000
     34       0.000000   0.000000   0.000000   0.000000   0.000000   0.000000
     35       0.000000  -0.000000   0.000000   0.000000   0.000000   0.000000
     36       0.224991   0.000000   0.000000   0.000000  -0.000000   0.000000
     37       0.000000   0.224991   0.000000   0.000000   0.000000   0.000000
     38       0.000000   0.000000   0.224991   0.000000   0.000000   0.000000
     39       0.684596   0.000000   0.000000   0.000000   0.000000   0.000000
     40       0.000000   0.684596   0.000000   0.000000   0.000000   0.000000
     41       0.000000   0.000000   0.684596   0.000000   0.000000   0.000000
     42       1.000000   0.000000   0.000000   0.000000   0.000000   0.000000
     43       0.000000   1.000000   0.000000   0.000000   0.000000   0.000000
     44       0.000000   0.000000   1.000000   0.000000   0.000000   0.000000
     45       0.000000   0.000000   0.000000   1.000000   0.000000   0.000000
     46       0.000000   0.000000   0.000000   0.000000   1.000000   0.000000
     47       0.000000   0.000000   0.000000   0.000000   0.000000   1.000000
     48       0.000000   0.000000   0.000000   0.000000   0.000000   0.000000
     49       0.000000   0.000000   0.000000   0.000000   0.000000   0.000000
     50       0.000000   0.000000   0.000000   0.505175   0.000000   0.000000
     51      -0.000000   0.000000   0.000000   0.000000   0.505175   0.000000
     52       0.000000   0.000000   0.000000   0.000000   0.000000   0.505175
     53       0.000000  -0.000000   0.000000   0.000000   0.000000   0.000000
     54       0.000000   0.000000  -0.000000   0.000000   0.000000   0.000000
     55       0.000000   0.000000   0.000000   0.000000  -0.000000   0.000000
     56       0.000000  -0.000000   0.000000   0.000000   0.000000   0.000000
     57       0.000000   0.000000  -0.000000   0.000000   0.000000   0.000000
     58      -0.000000   0.000000   0.000000   0.000000   0.000000   0.000000
     59       0.000000   0.000000   0.000000   0.000000   0.000000   0.000000
     60       0.000000  -0.000000   0.000000  -0.000000   0.000000   0.000000
     61       0.000000   0.000000   0.000000   0.000000   0.000000   0.000000
                 48         49         50         51         52         53    
      0       0.112566   0.000000  -0.050891   0.000000   0.000000   0.088145
      1       0.293968   0.000000  -0.142930   0.000000   0.000000   0.247562
      2       0.222525   0.000000  -0.209419   0.000000   0.000000   0.362724
      3       0.060820   0.000000  -0.109305   0.000000   0.000000   0.189322
      4       0.008689   0.000000  -0.027015   0.000000   0.000000   0.046791
      5       0.000000   0.000000   0.000000  -0.509420   0.000000   0.000000
      6       0.116360   0.000000   0.129834   0.000000   0.000000  -0.224878
      7       0.000000  -0.402442   0.000000   0.000000   0.000000   0.000000
      8       0.000000   0.000000   0.000000  -0.538757   0.000000   0.000000
      9      -0.093599   0.000000   0.206764   0.000000   0.000000  -0.358126
     10       0.000000  -0.184202   0.000000   0.000000   0.000000   0.000000
     11       0.000000   0.000000   0.000000  -0.174895   0.000000   0.000000
     12      -0.025397   0.000000   0.085402   0.000000   0.000000  -0.147920
     13       0.000000  -0.030999   0.000000   0.000000   0.000000   0.000000
     14       0.122654   0.000000   0.200003   0.000000   0.000000   0.134466
     15       0.000000   0.000000   0.000000  -0.054745   0.000000   0.000000
     16       0.000000   0.000000   0.000000   0.000000   0.277637   0.000000
     17       0.037402   0.000000   0.134466   0.000000   0.000000   0.044735
     18       0.000000  -0.443182   0.000000   0.000000   0.000000   0.000000
     19       0.134466   0.000000   0.542166   0.000000   0.000000   0.243462
     20       0.000000   0.000000   0.000000   0.161592   0.000000   0.000000
     21       0.000000   0.000000   0.000000   0.000000   0.682729   0.000000
     22       0.044735   0.000000   0.243462   0.000000   0.000000   0.261040
     23       0.000000  -0.054745   0.000000   0.000000   0.000000   0.000000
     24       0.000000   0.000000   0.000000  -0.131861   0.000000   0.000000
     25       0.169320   0.000000   0.309075   0.000000   0.000000   0.034774
     26       0.000000   0.009374   0.000000   0.000000   0.000000   0.000000
     27       0.000000   0.000000   0.000000   0.170232   0.000000   0.000000
     28       0.000000   0.000000   0.000000   0.000000   0.360568   0.000000
     29      -0.195803   0.000000  -0.110906   0.000000   0.000000  -0.249509
     30       0.000000   0.036303   0.000000   0.000000   0.000000   0.000000
     31      -0.000000   0.000000  -0.000000   0.000000   0.000000  -0.000000
     32      -0.000000   0.000000  -0.000000   0.000000   0.000000  -0.000000
     33      -0.000000   0.000000   0.000000   0.000000   0.000000  -0.000000
     34      -0.000000   0.000000   0.000000   0.000000   0.000000  -0.000000
     35      -0.000000   0.000000   0.000000   0.000000   0.000000  -0.000000
     36       0.000000   0.000000   0.000000  -0.000000   0.000000   0.000000
     37      -0.000000   0.000000   0.000000   0.000000   0.000000  -0.000000
     38       0.000000  -0.000000   0.000000   0.000000   0.000000   0.000000
     39       0.000000   0.000000   0.000000  -0.000000   0.000000   0.000000
     40       0.000000   0.000000   0.000000   0.000000   0.000000  -0.000000
     41       0.000000   0.000000   0.000000   0.000000   0.000000   0.000000
     42       0.000000   0.000000   0.000000  -0.000000   0.000000   0.000000
     43       0.000000   0.000000   0.000000   0.000000   0.000000  -0.000000
     44       0.000000   0.000000   0.000000   0.000000   0.000000   0.000000
     45       0.000000   0.000000   0.505175   0.000000   0.000000   0.000000
     46       0.000000   0.000000   0.000000   0.505175   0.000000   0.000000
     47       0.000000   0.000000   0.000000   0.000000   0.505175   0.000000
     48       1.000000   0.000000  -0.000000   0.000000   0.000000   0.505175
     49       0.000000   1.000000   0.000000   0.000000   0.000000   0.000000
     50      -0.000000   0.000000   1.000000   0.000000   0.000000   0.000000
     51       0.000000   0.000000   0.000000   1.000000   0.000000   0.000000
     52       0.000000   0.000000   0.000000   0.000000   1.000000   0.000000
     53       0.505175   0.000000   0.000000   0.000000   0.000000   1.000000
     54       0.000000   0.505175   0.000000   0.000000   0.000000   0.000000
     55       0.000000   0.000000   0.000000   0.000000   0.000000   0.000000
     56      -0.000000   0.000000   0.000000   0.000000   0.000000   0.000000
     57       0.000000  -0.000000   0.000000   0.000000   0.000000   0.000000
     58       0.000000   0.000000   0.000000   0.000000   0.000000   0.000000
     59       0.000000   0.000000   0.000000   0.000000   0.000000   0.000000
     60      -0.000000   0.000000   0.000000   0.000000   0.000000   0.000000
     61       0.000000  -0.000000   0.000000   0.000000   0.000000   0.000000
                 54         55         56         57         58         59    
      0       0.000000   0.000000   0.108957   0.000000   0.000000   0.000000
      1       0.000000   0.000000   0.241688   0.000000   0.000000   0.000000
      2       0.000000   0.000000   0.116163   0.000000   0.000000   0.000000
      3       0.000000   0.000000   0.021047   0.000000   0.000000   0.000000
      4       0.000000   0.000000   0.001614   0.000000   0.000000   0.000000
      5       0.000000  -0.304170   0.000000   0.000000   0.392682   0.000000
      6       0.000000   0.000000  -0.120014   0.000000   0.000000   0.000000
      7      -0.509420   0.000000   0.000000  -0.124177   0.000000   0.000000
      8       0.000000  -0.081968   0.000000   0.000000   0.105820   0.000000
      9       0.000000   0.000000  -0.070735   0.000000   0.000000   0.000000
     10      -0.538757   0.000000   0.000000  -0.033463   0.000000   0.000000
     11       0.000000  -0.006506   0.000000   0.000000   0.008399   0.000000
     12       0.000000   0.000000  -0.007045   0.000000   0.000000   0.000000
     13      -0.174895   0.000000   0.000000  -0.002656   0.000000   0.000000
     14       0.000000   0.000000  -0.365550   0.000000   0.000000   0.000000
     15       0.000000  -0.022960   0.000000   0.000000   0.029642   0.000000
     16       0.000000   0.000000   0.000000   0.000000   0.000000  -0.507528
     17       0.000000   0.000000  -0.169320   0.000000   0.000000   0.000000
     18      -0.054745   0.000000   0.000000  -0.009374   0.000000   0.000000
     19       0.000000   0.000000  -0.309075   0.000000   0.000000   0.000000
     20       0.000000   0.131861   0.000000   0.000000  -0.170232   0.000000
     21       0.000000   0.000000   0.000000   0.000000   0.000000  -0.360568
     22       0.000000   0.000000  -0.034774   0.000000   0.000000   0.000000
     23       0.161592   0.000000   0.000000   0.053832   0.000000   0.000000
     24       0.000000   0.175300   0.000000   0.000000   0.322334   0.000000
     25       0.000000   0.000000  -0.293727   0.000000   0.000000   0.000000
     26      -0.053832   0.000000   0.000000   0.383365   0.000000   0.000000
     27       0.000000   0.322334   0.000000   0.000000   0.008847   0.000000
     28       0.000000   0.000000   0.000000   0.000000   0.000000  -0.302344
     29       0.000000   0.000000   0.011124   0.000000   0.000000   0.000000
     30      -0.208491   0.000000   0.000000  -0.161167   0.000000   0.000000
     31       0.000000   0.000000   0.000000   0.000000   0.000000   0.000000
     32       0.000000   0.000000   0.000000   0.000000   0.000000   0.000000
     33       0.000000   0.000000  -0.000000   0.000000   0.000000   0.000000
     34       0.000000   0.000000   0.000000   0.000000   0.000000   0.000000
     35       0.000000   0.000000   0.000000   0.000000   0.000000   0.000000
     36       0.000000   0.000000   0.000000   0.000000  -0.000000   0.000000
     37       0.000000   0.000000   0.000000   0.000000   0.000000   0.000000
     38      -0.000000   0.000000   0.000000   0.000000   0.000000   0.000000
     39       0.000000   0.000000   0.000000   0.000000  -0.000000   0.000000
     40       0.000000   0.000000   0.000000   0.000000   0.000000   0.000000
     41      -0.000000   0.000000   0.000000   0.000000   0.000000   0.000000
     42       0.000000   0.000000   0.000000   0.000000  -0.000000   0.000000
     43       0.000000   0.000000  -0.000000   0.000000   0.000000   0.000000
     44      -0.000000   0.000000   0.000000  -0.000000   0.000000   0.000000
     45       0.000000   0.000000   0.000000   0.000000   0.000000   0.000000
     46       0.000000  -0.000000   0.000000   0.000000   0.000000   0.000000
     47       0.000000   0.000000   0.000000   0.000000   0.000000   0.000000
     48       0.000000   0.000000  -0.000000   0.000000   0.000000   0.000000
     49       0.505175   0.000000   0.000000  -0.000000   0.000000   0.000000
     50       0.000000   0.000000   0.000000   0.000000   0.000000   0.000000
     51       0.000000   0.000000   0.000000   0.000000   0.000000   0.000000
     52       0.000000   0.000000   0.000000   0.000000   0.000000   0.000000
     53       0.000000   0.000000   0.000000   0.000000   0.000000   0.000000
     54       1.000000   0.000000   0.000000   0.000000   0.000000   0.000000
     55       0.000000   1.000000   0.000000   0.000000   0.000000   0.000000
     56       0.000000   0.000000   1.000000   0.000000   0.000000   0.000000
     57       0.000000   0.000000   0.000000   1.000000   0.000000   0.000000
     58       0.000000   0.000000   0.000000   0.000000   1.000000   0.000000
     59       0.000000   0.000000   0.000000   0.000000   0.000000   1.000000
     60       0.000000   0.000000   0.000000   0.000000   0.000000   0.000000
     61       0.000000   0.000000   0.000000   0.000000   0.000000   0.000000
                 60         61    
      0       0.140663   0.000000
      1       0.312018   0.000000
      2       0.149966   0.000000
      3       0.027171   0.000000
      4       0.002084   0.000000
      5       0.000000   0.000000
      6      -0.154937   0.000000
      7       0.000000  -0.480935
      8       0.000000   0.000000
      9      -0.091318   0.000000
     10       0.000000  -0.129602
     11       0.000000   0.000000
     12      -0.009095   0.000000
     13       0.000000  -0.010286
     14       0.245829   0.000000
     15       0.000000   0.000000
     16       0.000000   0.000000
     17       0.195803   0.000000
     18       0.000000  -0.036303
     19       0.110906   0.000000
     20       0.000000   0.000000
     21       0.000000   0.000000
     22       0.249509   0.000000
     23       0.000000   0.208491
     24       0.000000   0.000000
     25       0.011124   0.000000
     26       0.000000  -0.161167
     27       0.000000   0.000000
     28       0.000000   0.000000
     29      -0.287982   0.000000
     30       0.000000  -0.199219
     31       0.000000   0.000000
     32       0.000000   0.000000
     33      -0.000000   0.000000
     34       0.000000   0.000000
     35       0.000000   0.000000
     36       0.000000   0.000000
     37       0.000000   0.000000
     38       0.000000   0.000000
     39       0.000000   0.000000
     40       0.000000   0.000000
     41       0.000000  -0.000000
     42       0.000000   0.000000
     43      -0.000000   0.000000
     44       0.000000   0.000000
     45      -0.000000   0.000000
     46       0.000000   0.000000
     47       0.000000   0.000000
     48      -0.000000   0.000000
     49       0.000000  -0.000000
     50       0.000000   0.000000
     51       0.000000   0.000000
     52       0.000000   0.000000
     53       0.000000   0.000000
     54       0.000000   0.000000
     55       0.000000   0.000000
     56       0.000000   0.000000
     57       0.000000   0.000000
     58       0.000000   0.000000
     59       0.000000   0.000000
     60       1.000000   0.000000
     61       0.000000   1.000000
Time for model grid setup =    0.018 sec

------------------------------
INITIAL GUESS: MODEL POTENTIAL
------------------------------
Loading Hartree-Fock densities                     ... done
Calculating cut-offs                               ... done
Initializing the effective Hamiltonian             ... done
Setting up the integral package (SHARK)            ... done
Starting the Coulomb interaction                   ... done (   0.1 sec)
Reading the grid                                   ... done
Mapping shells                                     ... done
Starting the XC term evaluation                    ... done (   0.0 sec)
Transforming the Hamiltonian                       ... done (   0.0 sec)
Diagonalizing the Hamiltonian                      ... done (   0.0 sec)
Back transforming the eigenvectors                 ... done (   0.0 sec)
Now organizing SCF variables                       ... done
                      ------------------
                      INITIAL GUESS DONE (   0.1 sec)
                      ------------------
--------------
SCF ITERATIONS
--------------
ITER       Energy         Delta-E        Max-DP      RMS-DP      [F,P]     Damp
               ***  Starting incremental Fock matrix formation  ***
  0   -190.4246560385   0.000000000000 0.43732755  0.01933802  0.5383563 0.7000
  1   -190.5628893297  -0.138233291182 0.29793517  0.01365093  0.3128607 0.7000
                               ***Turning on DIIS***
  2   -190.6338894995  -0.071000169792 0.12983778  0.00709982  0.1709005 0.7000
  3   -191.2454125185  -0.611523019012 0.08828764  0.00360419  0.1139012 0.7000
  4   -191.1068287026   0.138583815882 0.22690540  0.00959197  0.0812035 0.0000
  5   -190.8001584181   0.306670284553 0.02166778  0.00094631  0.0066551 0.0000
                      *** Initiating the SOSCF procedure ***
                           *** Shutting down DIIS ***
                      *** Re-Reading the Fockian *** 
                      *** Removing any level shift *** 
ITER      Energy       Delta-E        Grad      Rot      Max-DP    RMS-DP
  6   -190.77150078   0.0286576374  0.000373  0.000373  0.004237  0.000226
               *** Restarting incremental Fock matrix formation ***
  7   -190.77222389  -0.0007231110  0.000090  0.000076  0.000726  0.000046
  8   -190.77222393  -0.0000000338  0.000050  0.000020  0.000216  0.000011
                 **** Energy Check signals convergence ****
              ***Rediagonalizing the Fockian in SOSCF/NRSCF***

               *****************************************************
               *                     SUCCESS                       *
               *           SCF CONVERGED AFTER   9 CYCLES          *
               *****************************************************


----------------
TOTAL SCF ENERGY
----------------

Total Energy       :         -190.77222394 Eh           -5191.17613 eV

Components:
Nuclear Repulsion  :           85.72670774 Eh            2332.74231 eV
Electronic Energy  :         -276.49893168 Eh           -7523.91844 eV
One Electron Energy:         -423.69420985 Eh          -11529.30559 eV
Two Electron Energy:          147.19527816 Eh            4005.38715 eV

Virial components:
Potential Energy   :         -408.14682189 Eh          -11106.23965 eV
Kinetic Energy     :          217.37459795 Eh            5915.06353 eV
Virial Ratio       :            1.87761967


---------------
SCF CONVERGENCE
---------------

  Last Energy change         ...   -1.2195e-08  Tolerance :   1.0000e-06
  Last MAX-Density change    ...    2.2653e-05  Tolerance :   1.0000e-05
  Last RMS-Density change    ...    1.1875e-06  Tolerance :   1.0000e-06
  Last Orbital Gradient      ...    5.7006e-06  Tolerance :   5.0000e-05
  Last Orbital Rotation      ...    3.2069e-06  Tolerance :   5.0000e-05

             **** THE GBW FILE WAS UPDATED (def2tzvp2.gbw) ****
             **** DENSITY def2tzvp2.scfp WAS UPDATED ****
             **** ENERGY FILE WAS UPDATED (def2tzvp2.en.tmp) ****
             **** THE GBW FILE WAS UPDATED (def2tzvp2.gbw) ****
             **** DENSITY def2tzvp2.scfp WAS UPDATED ****
----------------
ORBITAL ENERGIES
----------------

  NO   OCC          E(Eh)            E(eV) 
   0   2.0000     -27.153545      -738.8855 
   1   2.0000     -26.888872      -731.6834 
   2   2.0000      -3.387154       -92.1691 
   3   2.0000      -2.143091       -58.3165 
   4   2.0000      -2.143091       -58.3165 
   5   2.0000      -1.484630       -40.3988 
   6   2.0000      -1.297618       -35.3100 
   7   2.0000      -0.076922        -2.0932 
   8   2.0000      -0.076922        -2.0932 
   9   0.0000       0.409583        11.1453 
  10   0.0000       0.425321        11.5736 
  11   0.0000       0.425321        11.5736 
  12   0.0000       0.517872        14.0920 
  13   0.0000       0.646563        17.5939 
  14   0.0000       0.879286        23.9266 
  15   0.0000       0.879286        23.9266 
  16   0.0000       1.361387        37.0452 
  17   0.0000       1.609796        43.8048 
  18   0.0000       1.609796        43.8048 
  19   0.0000       1.960715        53.3538 
  20   0.0000       2.252036        61.2810 
  21   0.0000       2.333949        63.5100 
  22   0.0000       2.333949        63.5100 
  23   0.0000       2.733746        74.3890 
  24   0.0000       2.733746        74.3890 
  25   0.0000       2.948839        80.2420 
  26   0.0000       3.007693        81.8435 
  27   0.0000       3.007693        81.8435 
  28   0.0000       3.119300        84.8805 
  29   0.0000       3.119300        84.8805 
  30   0.0000       4.022744       109.4644 
  31   0.0000       4.354374       118.4885 
  32   0.0000       4.485198       122.0484 
  33   0.0000       4.485198       122.0484 
  34   0.0000       4.877206       132.7155 
  35   0.0000       6.249851       170.0671 
  36   0.0000       6.249851       170.0671 
  37   0.0000       6.608736       179.8329 
  38   0.0000       6.608736       179.8329 
  39   0.0000       7.607186       207.0021 
  40   0.0000       7.607186       207.0021 
  41   0.0000       7.838351       213.2924 
  42   0.0000       7.888387       214.6539 
  43   0.0000       7.888387       214.6539 
  44   0.0000       8.203114       223.2181 
  45   0.0000       8.203114       223.2181 
  46   0.0000       8.577641       233.4095 
  47   0.0000       8.577641       233.4095 
  48   0.0000       8.838649       240.5119 
  49   0.0000       9.290784       252.8151 
  50   0.0000       9.323341       253.7010 
  51   0.0000       9.323341       253.7010 
  52   0.0000      10.727174       291.9012 
  53   0.0000      10.883751       296.1619 
  54   0.0000      10.883751       296.1619 
  55   0.0000      11.876198       323.1678 
  56   0.0000      11.876198       323.1678 
  57   0.0000      13.263811       360.9267 
  58   0.0000      13.263811       360.9267 
  59   0.0000      15.917617       433.1404 
  60   0.0000      59.502669      1619.1499 
  61   0.0000      61.302776      1668.1333 

                    ********************************
                    * MULLIKEN POPULATION ANALYSIS *
                    ********************************

-----------------------
MULLIKEN ATOMIC CHARGES
-----------------------
   0 F :   -0.000000
   1 F :    0.000000
Sum of atomic charges:   -0.0000000

--------------------------------
MULLIKEN REDUCED ORBITAL CHARGES
--------------------------------
  0 F s       :     3.798675  s :     3.798675
      pz      :     1.847782  p :     4.915267
      px      :     1.219704
      py      :     1.847782
      dz2     :    -0.002872  d :     0.269724
      dxz     :     0.140606
      dyz     :     0.000000
      dx2y2   :    -0.008616
      dxy     :     0.140606
      f0      :     0.004354  f :     0.016334
      f+1     :    -0.002584
      f-1     :     0.000726
      f+2     :     0.007257
      f-2     :     0.000000
      f+3     :    -0.004306
      f-3     :     0.010886
  1 F s       :     3.798675  s :     3.798675
      pz      :     1.847782  p :     4.915267
      px      :     1.219704
      py      :     1.847782
      dz2     :    -0.002872  d :     0.269724
      dxz     :     0.140606
      dyz     :     0.000000
      dx2y2   :    -0.008616
      dxy     :     0.140606
      f0      :     0.004354  f :     0.016334
      f+1     :    -0.002584
      f-1     :     0.000726
      f+2     :     0.007257
      f-2     :     0.000000
      f+3     :    -0.004306
      f-3     :     0.010886


                     *******************************
                     * LOEWDIN POPULATION ANALYSIS *
                     *******************************

----------------------
LOEWDIN ATOMIC CHARGES
----------------------
   0 F :   -0.000000
   1 F :    0.000000

-------------------------------
LOEWDIN REDUCED ORBITAL CHARGES
-------------------------------
  0 F s       :     3.136916  s :     3.136916
      pz      :     1.400963  p :     4.467137
      px      :     1.665211
      py      :     1.400963
      dz2     :     0.034356  d :     1.182168
      dxz     :     0.522372
      dyz     :     0.000000
      dx2y2   :     0.103068
      dxy     :     0.522372
      f0      :     0.028750  f :     0.213780
      f+1     :     0.022668
      f-1     :     0.004792
      f+2     :     0.047916
      f-2     :     0.000000
      f+3     :     0.037780
      f-3     :     0.071874
  1 F s       :     3.136916  s :     3.136916
      pz      :     1.400963  p :     4.467137
      px      :     1.665211
      py      :     1.400963
      dz2     :     0.034356  d :     1.182168
      dxz     :     0.522372
      dyz     :     0.000000
      dx2y2   :     0.103068
      dxy     :     0.522372
      f0      :     0.028750  f :     0.213780
      f+1     :     0.022668
      f-1     :     0.004792
      f+2     :     0.047916
      f-2     :     0.000000
      f+3     :     0.037780
      f-3     :     0.071874


                      *****************************
                      * MAYER POPULATION ANALYSIS *
                      *****************************

  NA   - Mulliken gross atomic population
  ZA   - Total nuclear charge
  QA   - Mulliken gross atomic charge
  VA   - Mayer's total valence
  BVA  - Mayer's bonded valence
  FA   - Mayer's free valence

  ATOM       NA         ZA         QA         VA         BVA        FA
  0 F      9.0000     9.0000    -0.0000     0.3636     0.3636    -0.0000
  1 F      9.0000     9.0000     0.0000     0.3636     0.3636     0.0000

  Mayer bond orders larger than 0.100000
B(  0-F ,  1-F ) :   0.3636 

-------
TIMINGS
-------

Total SCF time: 0 days 0 hours 0 min 1 sec 

Total time                  ....       1.835 sec
Sum of individual times     ....       1.592 sec  ( 86.8%)

Fock matrix formation       ....       1.428 sec  ( 77.8%)
Diagonalization             ....       0.005 sec  (  0.3%)
Density matrix formation    ....       0.000 sec  (  0.0%)
Population analysis         ....       0.013 sec  (  0.7%)
Initial guess               ....       0.086 sec  (  4.7%)
Orbital Transformation      ....       0.000 sec  (  0.0%)
Orbital Orthonormalization  ....       0.000 sec  (  0.0%)
DIIS solution               ....       0.031 sec  (  1.7%)
SOSCF solution              ....       0.011 sec  (  0.6%)

Maximum memory used throughout the entire SCF-calculation: 230.7 MB

-------------------------   --------------------
FINAL SINGLE POINT ENERGY      -190.772223937679
-------------------------   --------------------


                            ***************************************
                            *     ORCA property calculations      *
                            ***************************************

                                    ---------------------
                                    Active property flags
                                    ---------------------
   (+) Dipole Moment


------------------------------------------------------------------------------
                       ORCA ELECTRIC PROPERTIES CALCULATION
------------------------------------------------------------------------------

Dipole Moment Calculation                       ... on
Quadrupole Moment Calculation                   ... off
Polarizability Calculation                      ... off
GBWName                                         ... def2tzvp2.gbw
Electron density                                ... def2tzvp2.scfp
The origin for moment calculation is the CENTER OF MASS  = ( 0.472432,  0.000000  0.000000)

-------------
DIPOLE MOMENT
-------------
                                X             Y             Z
Electronic contribution:      0.00000      -0.00000      -0.00000
Nuclear contribution   :      0.00000       0.00000       0.00000
                        -----------------------------------------
Total Dipole Moment    :      0.00000      -0.00000      -0.00000
                        -----------------------------------------
Magnitude (a.u.)       :      0.00000
Magnitude (Debye)      :      0.00000



--------------------
Rotational spectrum 
--------------------
 
Rotational constants in cm-1:     0.000000     7.098703     7.098703 
Rotational constants in MHz :     0.000000 212813.761317 212813.761317 

 Dipole components along the rotational axes: 
x,y,z [a.u.] :     0.000000    -0.000000    -0.000000 
x,y,z [Debye]:     0.000000    -0.000000    -0.000000 

 

Timings for individual modules:

Sum of individual times         ...        2.027 sec (=   0.034 min)
GTO integral calculation        ...        0.149 sec (=   0.002 min)   7.4 %
SCF iterations                  ...        1.878 sec (=   0.031 min)  92.6 %
                             ****ORCA TERMINATED NORMALLY****
TOTAL RUN TIME: 0 days 0 hours 0 minutes 2 seconds 182 msec
